# vtk DataFile Version 3.0.
comment
ASCII

DATASET POLYDATA
POINTS 4000 double
-5.76875 1.766 0.383604
3.91471 0.545077 0.42232
-4.82896 -6.4016 0.374682
-3.16262 6.30424 0.682984
-5.31872 -4.14794 0.798448
-6.18361 6.00344 0.678143
-0.930078 -4.05488 0.162793
-0.356148 3.62706 0.333886
7.81992 -1.38802 0.0690519
-5.74301 4.3983 0.411803
-2.997 -4.11244 0.475326
-9.71921 -1.57896 0.260034
-2.95429 -6.92044 0.322445
-1.71125 6.33701 -0.00627059
5.1264 -7.20509 0.456331
3.27542 4.87094 0.337007
2.34923 -2.04722 0.298872
7.2305 -7.04783 0.254485
5.94739 2.37217 0.407202
-7.44655 -4.76347 0.363512
7.32665 -2.58562 0.338081
-8.49803 6.89654 0.526088
3.88267 -2.23538 0.569581
4.14008 1.58489 0.275226
6.32861 -5.32191 0.301457
-8.56622 9.36004 0.258296
-5.52466 -10.1575 0.85277
7.76199 4.33378 0.344379
-9.01726 -4.31464 0.477784
-5.80773 -4.73542 0.431512
0.281681 4.70997 0.465785
9.80848 0.579374 0.228082
-0.408234 7.75817 0.126056
-4.58429 -0.690264 0.559369
-5.7577 8.7814 0.0791322
-8.18703 -8.46804 -0.0855817
3.53747 3.18963 0.341839
-2.04698 3.45896 0.302582
-6.59351 2.49308 0.484473
4.12743 -1.25324 0.287885
1.59324 1.57008 0.44185
3.17059 -1.25658 0.196779
-1.91172 2.4939 0.451643
-9.79959 2.53595 0.512826
2.65234 5.68461 0.308298
-4.01464 -9.78802 0.193055
-10.1029 -5.04428 0.356104
-4.7617 4.40558 0.410481
-2.94236 -1.11934 0.382348
1.17018 -0.823907 0.286725
-8.5276 0.396057 0.471672
-4.82258 3.15764 0.447111
2.82625 3.96156 0.336759
-3.342 4.51893 0.524139
9.76943 -8.51532 0.349133
0.679293 -7.70822 0.80468
-7.22261 2.14033 0.354294
6.1832 -9.95736 0.343224
5.30689 3.20086 0.337445
0.896506 -3.94441 0.680158
-7.08657 -0.0301101 0.269466
9.8411 2.98583 0.177099
-6.45632 -7.98558 0.234614
-5.45748 -1.33059 0.367006
-9.43948 3.67718 0.472116
-0.395663 6.13851 0.293928
-9.92923 4.49432 0.393218
1.6685 5.49304 0.138995
-7.69987 -6.25353 0.324295
4.4303 8.99022 0.414953
-7.89316 5.49695 0.489196
-7.25141 6.96708 0.443766
-3.23516 -3.21919 0.227616
9.04351 -5.89796 0.256727
-7.56898 0.745048 0.421138
8.11522 8.1283 0.0860214
6.50288 -3.95262 0.358543
-2.39758 -4.48874 0.408092
3.96394 -0.509649 0.269473
3.42238 6.66409 0.410523
-5.44399 5.4469 0.354901
-9.15718 -5.53342 0.160721
8.25584 -6.75424 0.904605
-6.58985 5.26424 0.0970158
7.61965 5.85088 -0.0786694
2.48575 -6.50133 0.385485
-0.557094 -4.75306 0.221808
9.69695 -9.7095 0.252821
-0.589638 -8.80254 -0.544793
8.87082 -4.20651 0.253897
-1.40872 3.72607 0.515388
0.0331605 -0.184543 0.349159
-2.55894 -2.86632 0.439007
6.30225 -2.59397 0.129529
-2.92609 0.808373 0.334432
-4.05466 6.47484 0.294534
3.15501 8.38073 0.219136
9.8705 8.14217 0.310518
1.67436 2.51108 0.24268
-9.38454 5.46331 0.205221
-9.87959 8.20173 0.401889
8.85056 7.07691 0.310261
-8.287 5.32562 0.603335
8.97117 -7.16733 0.156912
-0.908879 -2.88306 0.469983
7.83009 -9.56193 0.232147
-4.98762 7.99962 0.280034
-5.93044 -7.35964 0.395156
3.41269 -3.41658 0.377906
7.06475 -0.407651 0.2653
-6.31281 -8.52141 0.394573
-7.09061 -9.36832 0.203821
-7.05335 4.28677 0.266377
-4.13059 2.14974 0.450516
-1.54752 -1.756 0.16663
8.08218 7.91979 0.342159
7.14599 -1.66902 0.267875
-6.28803 0.143881 0.302788
-2.24891 -9.77492 -0.0167866
-0.847278 -1.74865 0.448185
9.28717 1.60002 0.177861
-8.48113 -3.78586 0.266134
5.79874 6.57827 0.124347
0.3529 0.271913 0.34862
-3.96607 -9.2141 -0.387151
1.52443 0.757676 -0.864641
9.83248 -7.27031 0.216061
-8.25244 1.16835 -0.170493
5.24619 0.694795 0.0433204
5.42058 9.72251 0.131467
-4.71297 1.42674 0.407221
7.99057 9.70053 0.593297
-7.2096 8.47919 0.473983
-1.39832 4.45187 0.105468
6.77915 5.77006 0.360299
5.9534 0.0673031 -0.681576
0.904116 -6.14347 0.278558
-8.45592 -9.61388 0.288053
4.66958 -3.10937 0.160195
0.714058 3.59034 0.235183
5.12191 -0.594193 0.586098
-8.63899 -1.16487 0.413147
-1.96484 -3.42743 0.50072
-0.390109 -5.58161 0.676082
-5.12033 -8.0693 0.671852
-3.81005 -3.72432 0.258043
-3.99895 -1.0596 0.547619
0.540552 -9.38483 0.218802
-0.0394804 5.50756 0.979553
-2.60946 7.33867 0.341135
8.29154 -8.82403 0.078968
9.09178 -8.60883 0.197474
8.57327 5.23657 0.284701
2.95813 -9.72931 0.436563
-4.04308 5.5072 0.191957
-0.303699 -1.77991 0.11514
-3.59275 3.50978 0.327275
2.88312 9.81161 0.00181662
-3.54041 -2.14453 0.203377
8.83252 -9.18826 0.166683
-3.6022 7.18437 0.274931
6.67755 1.06755 0.307194
-2.98633 8.25537 0.0478226
-1.95609 -5.37309 0.37597
0.673313 -3.28099 -0.00527877
-5.67874 7.05746 0.180352
-0.683964 -10.0022 -1.81969
-2.01425 5.48964 -0.0231505
-4.80644 2.45713 0.574071
-4.16918 -7.27292 0.249907
9.80263 -1.28163 0.355428
-0.0409546 -6.04631 0.107664
1.7364 6.66779 0.317305
-3.23321 2.59502 0.322697
0.177462 4.0288 0.379755
4.69629 8.19367 -1.80651
-3.53983 -0.149519 0.283699
-5.12159 -2.06602 -0.00753319
7.08948 -9.08963 0.162509
6.98829 8.89053 0.135305
7.50317 2.99706 0.978443
-6.37099 -1.90574 0.864745
-2.46791 -6.55388 0.461255
0.221267 -3.93183 0.541208
8.22108 -4.28419 0.342291
-8.00545 -1.20353 0.267217
-4.92371 5.93463 0.278972
-1.47463 -4.35558 0.302018
7.12971 -6.7555 0.567646
6.72407 4.00958 0.177565
2.39678 -4.17091 0.365169
-8.18631 -2.22448 0.202199
4.83288 -9.68276 0.107495
4.9445 6.75881 0.410242
-5.25729 -5.28069 0.396084
5.54432 -4.60349 0.150435
8.1557 3.53499 0.259798
5.60179 5.38035 0.29149
-8.61592 -6.26754 -0.00828377
7.55953 -4.78182 0.298338
0.206751 2.8926 -0.153732
-1.19275 2.64637 0.353152
-1.35655 8.16235 -2.0399
-4.25896 -7.96309 -0.0322898
1.10945 -4.76846 0.628407
-5.96337 -3.64803 0.304896
8.89358 2.62054 0.209295
9.46655 -0.416451 0.218531
0.74831 5.16792 0.372393
-9.77247 0.0173189 0.353383
-9.44269 0.90821 0.0196647
0.732241 -1.25887 -0.158112
4.15774 9.86911 0.410631
8.12075 -7.83007 0.401085
8.32259 2.18393 0.229672
0.669767 8.13118 0.131674
6.0703 -1.45778 -1.69747
-7.50167 4.94562 0.370336
-2.1251 0.686292 0.335408
5.87111 1.8882 0.385394
3.19475 2.0611 0.160346
9.86488 -2.10479 0.639717
-7.80141 -7.0246 0.402018
2.35607 7.33571 0.280426
9.74625 -2.82374 0.274322
8.84722 0.293128 -1.97828
6.93217 -3.38982 0.195555
9.89053 5.24103 0.303324
1.9095 -9.7704 0.176093
-8.14128 -0.156523 0.251418
3.11414 -2.99555 0.418942
-2.41589 7.74878 0.254727
5.02414 1.92268 0.374392
1.82013 8.10632 0.215104
-10.2159 -6.69037 -0.728
8.02815 -3.34778 0.227988
-4.53688 -1.62493 0.30939
-3.13283 5.43916 0.132423
8.95259 4.17757 0.328891
6.7079 9.76564 -0.108579
7.89076 6.97601 0.218338
-7.48534 10.0502 0.353067
-0.667908 -8.58035 0.0986924
-3.33098 -8.47332 0.0667254
6.71204 3.10897 0.317899
1.50654 0.130788 -0.344893
-4.74938 7.204 0.247991
-6.58019 -1.0532 0.267739
0.93484 -2.12233 0.337109
-6.33631 -8.7347 -1.49773
2.5399 -7.51947 0.121552
-5.10083 -7.27463 0.204042
-2.53906 -5.87534 0.20239
8.06325 -5.17659 0.539081
1.84104 -2.70781 0.250445
-9.63189 -9.11625 0.129677
-1.3414 -7.48757 -0.0918806
-3.20249 -2.4244 0.927703
-4.01714 -2.94143 0.482549
-7.4823 -9.96595 0.33603
-5.88775 -6.64028 0.622376
-5.08711 8.87448 0.210558
4.32898 2.53611 0.268367
-9.92199 -7.84068 -0.281744
2.53611 -3.35168 0.472672
-8.00149 3.55559 0.0651695
2.55768 0.756368 0.316616
-2.5222 5.0129 0.280059
4.85805 5.13134 0.216338
-9.11295 -0.462076 0.268608
-3.01092 3.84131 0.358034
-8.07278 8.39823 0.0806421
-6.61123 -2.31768 0.0830059
-9.29846 -2.48217 0.187258
6.75908 2.50293 0.295851
-1.09829 9.24804 0.123571
2.78683 8.44285 0.73629
1.87689 -6.70067 -0.149794
8.67296 -1.96323 0.265017
-9.8611 -3.77252 0.317103
-1.48857 7.11126 -0.124196
-0.559558 -2.96309 0.171084
9.19285 7.76055 0.305199
9.84636 -6.43636 0.261763
1.69619 9.4744 0.250501
5.82917 3.65586 0.0612725
-4.15861 2.88894 0.281524
-9.27086 -5.92844 -0.0826449
-3.94408 7.64526 -0.0863129
-7.03852 -7.85943 -0.197434
7.34152 2.15886 0.332647
-8.2285 6.12278 0.235318
6.77599 6.56929 0.153166
2.96552 9.12313 0.285097
-8.7795 2.55945 -0.263161
-8.00014 -8.59517 -1.76745
0.847168 2.49516 0.207765
5.24271 -5.7589 -0.0493027
1.81969 -6.0562 0.354176
-1.7513 0.975879 0.136522
1.33117 7.75024 0.18144
2.68972 -5.38401 0.461816
0.471656 5.82405 0.257576
5.95004 5.86517 0.330795
4.08858 5.08974 0.389074
10.1684 -5.91484 -0.0176824
-7.0719 -1.24409 0.239377
0.205051 1.74088 0.300919
3.26579 -7.5605 0.0601985
7.7907 -6.2914 -5.16398
-3.38769 1.49434 0.215122
2.09555 -3.20582 -0.17394
4.39936 7.20936 0.280552
-1.83006 -9.50498 0.69319
-9.31851 -7.14916 0.0744206
6.31413 -6.08996 0.0410022
-4.81352 -9.75717 0.142453
-1.49617 -2.9657 0.0947271
9.62548 7.35055 0.310006
0.38423 1.32044 0.678417
-3.20983 -5.74667 0.265283
1.52959 -1.96994 0.281916
-5.75169 2.69176 -0.0240634
-1.18199 -4.84138 0.332838
1.50446 -8.82339 -0.0100632
5.07503 -7.50884 -0.366928
9.797 -3.88228 0.24844
-6.91358 -3.37857 0.114761
3.40966 -7.05288 0.0433674
-6.67374 6.51559 0.276534
7.04668 7.53577 0.0672413
3.20717 -5.11663 -2.00295
3.68132 -8.85569 -0.100907
-5.78556 -6.07933 0.416328
5.94286 8.98706 0.0899792
7.38618 3.68759 0.28231
1.06611 -8.68194 0.19593
1.4072 4.43987 0.380844
3.26798 -2.29466 0.328946
9.83964 2.20728 0.353589
-4.31493 -2.65899 -0.0750603
-4.35751 8.56592 0.209376
-7.39966 9.18226 0.22738
8.8893 5.61859 0.256305
7.38591 -5.08756 -8.10813
-1.50059 -0.352445 0.221975
-2.21159 8.84883 0.197366
-8.47277 7.61019 0.188624
0.769371 -6.80584 -0.438037
3.08815 0.978555 0.224235
-6.74972 8.87604 0.194826
-7.63869 -4.19647 0.174165
-1.57193 -0.377132 -0.586832
4.62703 -5.64032 0.165301
9.70962 4.46527 0.0455461
-8.83201 -4.93271 0.149562
-9.39574 4.50401 -0.018257
3.71699 -3.18512 0.281513
-7.50205 -3.11916 0.319251
8.07817 2.72153 0.281096
5.6539 0.775996 -2.36396
-6.18041 1.02667 0.195876
6.67097 4.79639 0.200101
-10.0494 -7.58424 0.687685
8.7431 6.38559 0.203492
-4.06411 -6.06032 0.264596
-5.3544 9.8007 0.181424
8.07533 1.65821 0.195466
7.83054 -8.58506 0.28559
4.55571 -6.21042 0.314746
-2.81358 -5.15309 0.32118
-7.88936 2.93729 -2.21395
1.78881 3.67534 0.215523
4.90653 -8.59679 0.20456
-7.58295 7.55015 0.0646604
8.42358 6.33039 0.761848
1.68979 -5.32775 -0.0105771
-9.04443 8.34624 0.206246
-9.36362 -3.05207 0.130628
[...]
POINT_DATA 4000
SCALARS radius double 1
LOOKUP_TABLE default
0.645381
0.644961
0.644541
0.644121
0.643701
0.643281
0.642861
0.642441
0.642021
0.641601
0.641181
0.640761
0.640341
0.639921
0.639501
0.639081
0.638661
0.638241
0.637821
0.637401
0.636981
0.636561
0.636141
0.635721
0.635301
0.634881
0.634461
0.634041
0.633621
0.633201
0.632781
0.632361
0.631941
0.631521
0.631101
0.630681
0.630261
0.629841
0.629421
0.629001
0.628581
0.628161
0.627741
0.627321
0.626901
0.626481
0.626061
0.625641
0.625221
0.624801
0.624381
0.623961
0.623541
0.623121
0.622701
0.622281
0.621861
0.621441
0.621021
0.620601
0.620181
0.619761
0.619341
0.618921
0.618501
0.618081
0.617661
0.617241
0.616821
0.616402
0.615982
0.615562
0.615142
0.614722
0.614302
0.613882
0.613462
0.613042
0.612622
0.612202
0.611782
0.611362
0.610942
0.610522
0.610102
0.609682
0.609262
0.608842
0.608422
0.608002
0.607582
0.607162
0.606742
0.606322
0.605902
0.605482
0.605062
0.604642
0.604222
0.603802
0.603382
0.602962
0.602542
0.602122
0.601702
0.601282
0.600862
0.600442
0.600022
0.599602
0.599182
0.598762
0.598342
0.597922
0.597502
0.597082
0.596662
0.596242
0.595822
0.595402
0.594982
0.594562
0.594142
0.593722
0.593302
0.592882
0.592462
0.592042
0.591622
0.591202
0.590782
0.590362
0.589942
0.589522
0.589102
0.588682
0.588262
0.587842
0.587422
0.587002
0.586582
0.586162
0.585742
0.585322
0.584902
0.584482
0.584062
0.583642
0.583223
0.582803
0.582383
0.581963
0.581543
0.581123
0.580703
0.580283
0.579863
0.579443
0.579023
0.578603
0.578183
0.577763
0.577343
0.576923
0.576503
0.576083
0.575663
0.575243
0.574823
0.574403
0.573983
0.573563
0.573143
0.572723
0.572303
0.571883
0.571463
0.571043
0.570623
0.570203
0.569783
0.569363
0.568943
0.568523
0.568103
0.567683
0.567263
0.566843
0.566423
0.566003
0.565583
0.565163
0.564743
0.564323
0.563903
0.563483
0.563063
0.562643
0.562223
0.561803
0.561383
0.560963
0.560543
0.560123
0.559703
0.559283
0.558863
0.558443
0.558023
0.557603
0.557183
0.556763
0.556343
0.555923
0.555503
0.555083
0.554663
0.554243
0.553823
0.553403
0.552983
0.552563
0.552143
0.551723
0.551303
0.550883
0.550463
0.550044
0.549624
0.549204
0.548784
0.548364
0.547944
0.547524
0.547104
0.546684
0.546264
0.545844
0.545424
0.545004
0.544584
0.544164
0.543744
0.543324
0.542904
0.542484
0.542064
0.541644
0.541224
0.540804
0.540384
0.539964
0.539544
0.539124
0.538704
0.538284
0.537864
0.537444
0.537024
0.536604
0.536184
0.535764
0.535344
0.534924
0.534504
0.534084
0.533664
0.533244
0.532824
0.532404
0.531984
0.531564
0.531144
0.530724
0.530304
0.529884
0.529464
0.529044
0.528624
0.528204
0.527784
0.527364
0.526944
0.526524
0.526104
0.525684
0.525264
0.524844
0.524424
0.524004
0.523584
0.523164
0.522744
0.522324
0.521904
0.521484
0.521064
0.520644
0.520224
0.519804
0.519384
0.518964
0.518544
0.518124
0.517704
0.517284
0.516864
0.516445
0.516025
0.515605
0.515185
0.514765
0.514345
0.513925
0.513505
0.513085
0.512665
0.512245
0.511825
0.511405
0.510985
0.510565
0.510145
0.509725
0.509305
0.508885
0.508465
0.508045
0.507625
0.507205
0.506785
0.506365
0.505945
0.505525
0.505105
0.504685
0.504265
0.503845
0.503425
0.503005
0.502585
0.502165
0.501745
0.501325
0.500905
0.500485
0.500065
0.499645
0.499225
0.498805
0.498385
0.497965
0.497545
0.497125
0.496705
0.496285
0.495865
0.495445
0.495025
0.494605
0.494185
0.493765
0.493345
0.492925
0.492505
0.492085
0.491665
0.491245
0.490825
0.490405
0.489985
0.489565
0.489145
0.488725
0.488305
0.487885
0.487465
0.487045
0.486625
0.486205
0.485785
0.485365
0.484945
0.484525
0.484105
0.483685
0.483266
0.482846
0.482426
0.482006
0.481586
0.481166
0.480746
0.480326
0.479906
0.479486
0.479066
0.478646
0.478226
0.477806
0.645381
0.644961
0.644541
0.644121
0.643701
0.643281
0.642861
0.642441
0.642021
0.641601
0.641181
0.640761
0.640341
0.639921
0.639501
0.639081
0.638661
0.638241
0.637821
0.637401
0.636981
0.636561
0.636141
0.635721
0.635301
0.634881
0.634461
0.634041
0.633621
0.633201
0.632781
0.632361
0.631941
0.631521
0.631101
0.630681
0.630261
0.629841
0.629421
0.629001
0.628581
0.628161
0.627741
0.627321
0.626901
0.626481
0.626061
0.625641
0.625221
0.624801
0.624381
0.623961
0.623541
0.623121
0.622701
0.622281
0.621861
0.621441
0.621021
0.620601
0.620181
0.619761
0.619341
0.618921
0.618501
0.618081
0.617661
0.617241
0.616821
0.616402
0.615982
0.615562
0.615142
0.614722
0.614302
0.613882
0.613462
0.613042
0.612622
0.612202
0.611782
0.611362
0.610942
0.610522
0.610102
0.609682
0.609262
0.608842
0.608422
0.608002
0.607582
0.607162
0.606742
0.606322
0.605902
0.605482
0.605062
0.604642
0.604222
0.603802
0.603382
0.602962
0.602542
0.602122
0.601702
0.601282
0.600862
0.600442
0.600022
0.599602
0.599182
0.598762
0.598342
0.597922
0.597502
0.597082
0.596662
0.596242
0.595822
0.595402
0.594982
0.594562
0.594142
0.593722
0.593302
0.592882
0.592462
0.592042
0.591622
0.591202
0.590782
0.590362
0.589942
0.589522
0.589102
0.588682
0.588262
0.587842
0.587422
0.587002
0.586582
0.586162
0.585742
0.585322
0.584902
0.584482
0.584062
0.583642
0.583223
0.582803
0.582383
0.581963
0.581543
0.581123
0.580703
0.580283
0.579863
0.579443
0.579023
0.578603
0.578183
0.577763
0.577343
0.576923
0.576503
0.576083
0.575663
0.575243
0.574823
0.574403
0.573983
0.573563
0.573143
0.572723
0.572303
0.571883
0.571463
0.571043
0.570623
0.570203
0.569783
0.569363
0.568943
0.568523
0.568103
0.567683
0.567263
0.566843
0.566423
0.566003
0.565583
0.565163
0.564743
0.564323
0.563903
0.563483
0.563063
0.562643
0.562223
0.561803
0.561383
0.560963
0.560543
0.560123
0.559703
0.559283
0.558863
0.558443
0.558023
0.557603
0.557183
0.556763
0.556343
0.555923
0.555503
0.555083
0.554663
0.554243
0.553823
0.553403
0.552983
0.552563
0.552143
0.551723
0.551303
0.550883
0.550463
0.550044
0.549624
0.549204
0.548784
0.548364
0.547944
0.547524
0.547104
0.546684
0.546264
0.545844
0.545424
0.545004
0.544584
0.544164
0.543744
0.543324
0.542904
0.542484
0.542064
0.541644
0.541224
0.540804
0.540384
0.539964
0.539544
0.539124
0.538704
0.538284
0.537864
0.537444
0.537024
0.536604
0.536184
0.535764
0.535344
0.534924
0.534504
0.534084
0.533664
0.533244
0.532824
0.532404
0.531984
0.531564
0.531144
0.530724
0.530304
0.529884
0.529464
0.529044
0.528624
0.528204
0.527784
0.527364
0.526944
0.526524
0.526104
0.525684
0.525264
0.524844
0.524424
0.524004
0.523584
0.523164
0.522744
0.522324
0.521904
0.521484
0.521064
0.520644
0.520224
0.519804
0.519384
0.518964
0.518544
0.518124
0.517704
0.517284
0.516864
0.516445
0.516025
0.515605
0.515185
0.514765
0.514345
0.513925
0.513505
0.513085
0.512665
0.512245
0.511825
0.511405
0.510985
0.510565
0.510145
0.509725
0.509305
0.508885
0.508465
0.508045
0.507625
0.507205
0.506785
0.506365
0.505945
0.505525
0.505105
0.504685
0.504265
0.503845
0.503425
0.503005
0.502585
0.502165
0.501745
0.501325
0.500905
0.500485
0.500065
0.499645
0.499225
0.498805
0.498385
0.497965
0.497545
0.497125
0.496705
0.496285
0.495865
0.495445
0.495025
0.494605
0.494185
0.493765
0.493345
0.492925
0.492505
0.492085
0.491665
0.491245
0.490825
0.490405
0.489985
0.489565
0.489145
0.488725
0.488305
0.487885
0.487465
0.487045
0.486625
0.486205
0.485785
0.485365
0.484945
0.484525
0.484105
0.483685
0.483266
0.482846
0.482426
0.482006
0.481586
0.481166
0.480746
0.480326
0.479906
0.479486
0.479066
0.478646
0.478226
0.477806
0.645381
0.644961
0.644541
0.644121
0.643701
0.643281
0.642861
0.642441
0.642021
0.641601
0.641181
0.640761
0.640341
0.639921
0.639501
0.639081
0.638661
0.638241
0.637821
0.637401
0.636981
0.636561
0.636141
0.635721
0.635301
0.634881
0.634461
0.634041
0.633621
0.633201
0.632781
0.632361
0.631941
0.631521
0.631101
0.630681
0.630261
0.629841
0.629421
0.629001
0.628581
0.628161
0.627741
0.627321
0.626901
0.626481
0.626061
0.625641
0.625221
0.624801
0.624381
0.623961
0.623541
0.623121
0.622701
0.622281
0.621861
0.621441
0.621021
0.620601
0.620181
0.619761
0.619341
0.618921
0.618501
0.618081
0.617661
0.617241
0.616821
0.616402
0.615982
0.615562
0.615142
0.614722
0.614302
0.613882
0.613462
0.613042
0.612622
0.612202
0.611782
0.611362
0.610942
0.610522
0.610102
0.609682
0.609262
0.608842
0.608422
0.608002
0.607582
0.607162
0.606742
0.606322
0.605902
0.605482
0.605062
0.604642
0.604222
0.603802
0.603382
0.602962
0.602542
0.602122
0.601702
0.601282
0.600862
0.600442
0.600022
0.599602
0.599182
0.598762
0.598342
0.597922
0.597502
0.597082
0.596662
0.596242
0.595822
0.595402
0.594982
0.594562
0.594142
0.593722
0.593302
0.592882
0.592462
0.592042
0.591622
0.591202
0.590782
0.590362
0.589942
0.589522
0.589102
0.588682
0.588262
0.587842
0.587422
0.587002
0.586582
0.586162
0.585742
0.585322
0.584902
0.584482
0.584062
0.583642
0.583223
0.582803
0.582383
0.581963
0.581543
0.581123
0.580703
0.580283
0.579863
0.579443
0.579023
0.578603
0.578183
0.577763
0.577343
0.576923
0.576503
0.576083
0.575663
0.575243
0.574823
0.574403
0.573983
0.573563
0.573143
0.572723
0.572303
0.571883
0.571463
0.571043
0.570623
0.570203
0.569783
0.569363
0.568943
0.568523
0.568103
0.567683
0.567263
0.566843
0.566423
0.566003
0.565583
0.565163
0.564743
0.564323
0.563903
0.563483
0.563063
0.562643
0.562223
0.561803
0.561383
0.560963
0.560543
0.560123
0.559703
0.559283
0.558863
0.558443
0.558023
0.557603
0.557183
0.556763
0.556343
0.555923
0.555503
0.555083
0.554663
0.554243
0.553823
0.553403
0.552983
0.552563
0.552143
0.551723
0.551303
0.550883
0.550463
0.550044
0.549624
0.549204
0.548784
0.548364
0.547944
0.547524
0.547104
0.546684
0.546264
0.545844
0.545424
0.545004
0.544584
0.544164
0.543744
0.543324
0.542904
0.542484
0.542064
0.541644
0.541224
0.540804
0.540384
0.539964
0.539544
0.539124
0.538704
0.538284
0.537864
0.537444
0.537024
0.536604
0.536184
0.535764
0.535344
0.534924
0.534504
0.534084
0.533664
0.533244
0.532824
0.532404
0.531984
0.531564
0.531144
0.530724
0.530304
0.529884
0.529464
0.529044
0.528624
0.528204
0.527784
0.527364
0.526944
0.526524
0.526104
0.525684
0.525264
0.524844
0.524424
0.524004
0.523584
0.523164
0.522744
0.522324
0.521904
0.521484
0.521064
0.520644
0.520224
0.519804
0.519384
0.518964
0.518544
0.518124
0.517704
0.517284
0.516864
0.516445
0.516025
0.515605
0.515185
0.514765
0.514345
0.513925
0.513505
0.513085
0.512665
0.512245
0.511825
0.511405
0.510985
0.510565
0.510145
0.509725
0.509305
0.508885
0.508465
0.508045
0.507625
0.507205
0.506785
0.506365
0.505945
0.505525
0.505105
0.504685
0.504265
0.503845
0.503425
0.503005
0.502585
0.502165
0.501745
0.501325
0.500905
0.500485
0.500065
0.499645
0.499225
0.498805
0.498385
0.497965
0.497545
0.497125
0.496705
0.496285
0.495865
0.495445
0.495025
0.494605
0.494185
0.493765
0.493345
0.492925
0.492505
0.492085
0.491665
0.491245
0.490825
0.490405
0.489985
0.489565
0.489145
0.488725
0.488305
0.487885
0.487465
0.487045
0.486625
0.486205
0.485785
0.485365
0.484945
0.484525
0.484105
0.483685
0.483266
0.482846
0.482426
0.482006
0.481586
0.481166
0.480746
0.480326
0.479906
0.479486
0.479066
0.478646
0.478226
0.477806
0.645381
0.644961
0.644541
0.644121
0.643701
0.643281
0.642861
0.642441
0.642021
0.641601
0.641181
0.640761
0.640341
0.639921
0.639501
0.639081
0.638661
0.638241
0.637821
0.637401
0.636981
0.636561
0.636141
0.635721
0.635301
0.634881
0.634461
0.634041
0.633621
0.633201
0.632781
0.632361
0.631941
0.631521
0.631101
0.630681
0.630261
0.629841
0.629421
0.629001
0.628581
0.628161
0.627741
0.627321
0.626901
0.626481
0.626061
0.625641
0.625221
0.624801
0.624381
0.623961
0.623541
0.623121
0.622701
0.622281
0.621861
0.621441
0.621021
0.620601
0.620181
0.619761
0.619341
0.618921
0.618501
0.618081
0.617661
0.617241
0.616821
0.616402
0.615982
0.615562
0.615142
0.614722
0.614302
0.613882
0.613462
0.613042
0.612622
0.612202
0.611782
0.611362
0.610942
0.610522
0.610102
0.609682
0.609262
0.608842
0.608422
0.608002
0.607582
0.607162
0.606742
0.606322
0.605902
0.605482
0.605062
0.604642
0.604222
0.603802
0.603382
0.602962
0.602542
0.602122
0.601702
0.601282
0.600862
0.600442
0.600022
0.599602
0.599182
0.598762
0.598342
0.597922
0.597502
0.597082
0.596662
0.596242
0.595822
0.595402
0.594982
0.594562
0.594142
0.593722
0.593302
0.592882
0.592462
0.592042
0.591622
0.591202
0.590782
0.590362
0.589942
0.589522
0.589102
0.588682
0.588262
0.587842
0.587422
0.587002
0.586582
0.586162
0.585742
0.585322
0.584902
0.584482
0.584062
0.583642
0.583223
0.582803
0.582383
0.581963
0.581543
0.581123
0.580703
0.580283
0.579863
0.579443
0.579023
0.578603
0.578183
0.577763
0.577343
0.576923
0.576503
0.576083
0.575663
0.575243
0.574823
0.574403
0.573983
0.573563
0.573143
0.572723
0.572303
0.571883
0.571463
0.571043
0.570623
0.570203
0.569783
0.569363
0.568943
0.568523
0.568103
0.567683
0.567263
0.566843
0.566423
0.566003
0.565583
0.565163
0.564743
0.564323
0.563903
0.563483
0.563063
0.562643
0.562223
0.561803
0.561383
0.560963
0.560543
0.560123
0.559703
0.559283
0.558863
0.558443
0.558023
0.557603
0.557183
0.556763
0.556343
0.555923
0.555503
0.555083
0.554663
0.554243
0.553823
0.553403
0.552983
0.552563
0.552143
0.551723
0.551303
0.550883
0.550463
0.550044
0.549624
0.549204
0.548784
0.548364
0.547944
0.547524
0.547104
0.546684
0.546264
0.545844
0.545424
0.545004
0.544584
0.544164
0.543744
0.543324
0.542904
0.542484
0.542064
0.541644
0.541224
0.540804
0.540384
0.539964
0.539544
0.539124
0.538704
0.538284
0.537864
0.537444
0.537024
0.536604
0.536184
0.535764
0.535344
0.534924
0.534504
0.534084
0.533664
0.533244
0.532824
0.532404
0.531984
0.531564
0.531144
0.530724
0.530304
0.529884
0.529464
0.529044
0.528624
0.528204
0.527784
0.527364
0.526944
0.526524
0.526104
0.525684
0.525264
0.524844
0.524424
0.524004
0.523584
0.523164
0.522744
0.522324
0.521904
0.521484
0.521064
0.520644
0.520224
0.519804
0.519384
0.518964
0.518544
0.518124
0.517704
0.517284
0.516864
0.516445
0.516025
0.515605
0.515185
0.514765
0.514345
0.513925
0.513505
0.513085
0.512665
0.512245
0.511825
0.511405
0.510985
0.510565
0.510145
0.509725
0.509305
0.508885
0.508465
0.508045
0.507625
0.507205
0.506785
0.506365
0.505945
0.505525
0.505105
0.504685
0.504265
0.503845
0.503425
0.503005
0.502585
0.502165
0.501745
0.501325
0.500905
0.500485
0.500065
0.499645
0.499225
0.498805
0.498385
0.497965
0.497545
0.497125
0.496705
0.496285
0.495865
0.495445
0.495025
0.494605
0.494185
0.493765
0.493345
0.492925
0.492505
0.492085
0.491665
0.491245
0.490825
0.490405
0.489985
0.489565
0.489145
0.488725
0.488305
0.487885
0.487465
0.487045
0.486625
0.486205
0.485785
0.485365
0.484945
0.484525
0.484105
0.483685
0.483266
0.482846
0.482426
0.482006
0.481586
0.481166
0.480746
0.480326
0.479906
0.479486
0.479066
0.478646
0.478226
0.477806
0.645381
0.644961
0.644541
0.644121
0.643701
0.643281
0.642861
0.642441
0.642021
0.641601
0.641181
0.640761
0.640341
0.639921
0.639501
0.639081
0.638661
0.638241
0.637821
0.637401
0.636981
0.636561
0.636141
0.635721
0.635301
0.634881
0.634461
0.634041
0.633621
0.633201
0.632781
0.632361
0.631941
0.631521
0.631101
0.630681
0.630261
0.629841
0.629421
0.629001
0.628581
0.628161
0.627741
0.627321
0.626901
0.626481
0.626061
0.625641
0.625221
0.624801
0.624381
0.623961
0.623541
0.623121
0.622701
0.622281
0.621861
0.621441
0.621021
0.620601
0.620181
0.619761
0.619341
0.618921
0.618501
0.618081
0.617661
0.617241
0.616821
0.616402
0.615982
0.615562
0.615142
0.614722
0.614302
0.613882
0.613462
0.613042
0.612622
0.612202
0.611782
0.611362
0.610942
0.610522
0.610102
0.609682
0.609262
0.608842
0.608422
0.608002
0.607582
0.607162
0.606742
0.606322
0.605902
0.605482
0.605062
0.604642
0.604222
0.603802
0.603382
0.602962
0.602542
0.602122
0.601702
0.601282
0.600862
0.600442
0.600022
0.599602
0.599182
0.598762
0.598342
0.597922
0.597502
0.597082
0.596662
0.596242
0.595822
0.595402
0.594982
0.594562
0.594142
0.593722
0.593302
0.592882
0.592462
0.592042
0.591622
0.591202
0.590782
0.590362
0.589942
0.589522
0.589102
0.588682
0.588262
0.587842
0.587422
0.587002
0.586582
0.586162
0.585742
0.585322
0.584902
0.584482
0.584062
0.583642
0.583223
0.582803
0.582383
0.581963
0.581543
0.581123
0.580703
0.580283
0.579863
0.579443
0.579023
0.578603
0.578183
0.577763
0.577343
0.576923
0.576503
0.576083
0.575663
0.575243
0.574823
0.574403
0.573983
0.573563
0.573143
0.572723
0.572303
0.571883
0.571463
0.571043
0.570623
0.570203
0.569783
0.569363
0.568943
0.568523
0.568103
0.567683
0.567263
0.566843
0.566423
0.566003
0.565583
0.565163
0.564743
0.564323
0.563903
0.563483
0.563063
0.562643
0.562223
0.561803
0.561383
0.560963
0.560543
0.560123
0.559703
0.559283
0.558863
0.558443
0.558023
0.557603
0.557183
0.556763
0.556343
0.555923
0.555503
0.555083
0.554663
0.554243
0.553823
0.553403
0.552983
0.552563
0.552143
0.551723
0.551303
0.550883
0.550463
0.550044
0.549624
0.549204
0.548784
0.548364
0.547944
0.547524
0.547104
0.546684
0.546264
0.545844
0.545424
0.545004
0.544584
0.544164
0.543744
0.543324
0.542904
0.542484
0.542064
0.541644
0.541224
0.540804
0.540384
0.539964
0.539544
0.539124
0.538704
0.538284
0.537864
0.537444
0.537024
0.536604
0.536184
0.535764
0.535344
0.534924
0.534504
0.534084
0.533664
0.533244
0.532824
0.532404
0.531984
0.531564
0.531144
0.530724
0.530304
0.529884
0.529464
0.529044
0.528624
0.528204
0.527784
0.527364
0.526944
0.526524
0.526104
0.525684
0.525264
0.524844
0.524424
0.524004
0.523584
0.523164
0.522744
0.522324
0.521904
0.521484
0.521064
0.520644
0.520224
0.519804
0.519384
0.518964
0.518544
0.518124
0.517704
0.517284
0.516864
0.516445
0.516025
0.515605
0.515185
0.514765
0.514345
0.513925
0.513505
0.513085
0.512665
0.512245
0.511825
0.511405
0.510985
0.510565
0.510145
0.509725
0.509305
0.508885
0.508465
0.508045
0.507625
0.507205
0.506785
0.506365
0.505945
0.505525
0.505105
0.504685
0.504265
0.503845
0.503425
0.503005
0.502585
0.502165
0.501745
0.501325
0.500905
0.500485
0.500065
0.499645
0.499225
0.498805
0.498385
0.497965
0.497545
0.497125
0.496705
0.496285
0.495865
0.495445
0.495025
0.494605
0.494185
0.493765
0.493345
0.492925
0.492505
0.492085
0.491665
0.491245
0.490825
0.490405
0.489985
0.489565
0.489145
0.488725
0.488305
0.487885
0.487465
0.487045
0.486625
0.486205
0.485785
0.485365
0.484945
0.484525
0.484105
0.483685
0.483266
0.482846
0.482426
0.482006
0.481586
0.481166
0.480746
0.480326
0.479906
0.479486
0.479066
0.478646
0.478226
0.477806
0.645381
0.644961
0.644541
0.644121
0.643701
0.643281
0.642861
0.642441
0.642021
0.641601
0.641181
0.640761
0.640341
0.639921
0.639501
0.639081
0.638661
0.638241
0.637821
0.637401
0.636981
0.636561
0.636141
0.635721
0.635301
0.634881
0.634461
0.634041
0.633621
0.633201
0.632781
0.632361
0.631941
0.631521
0.631101
0.630681
0.630261
0.629841
0.629421
0.629001
0.628581
0.628161
0.627741
0.627321
0.626901
0.626481
0.626061
0.625641
0.625221
0.624801
0.624381
0.623961
0.623541
0.623121
0.622701
0.622281
0.621861
0.621441
0.621021
0.620601
0.620181
0.619761
0.619341
0.618921
0.618501
0.618081
0.617661
0.617241
0.616821
0.616402
0.615982
0.615562
0.615142
0.614722
0.614302
0.613882
0.613462
0.613042
0.612622
0.612202
0.611782
0.611362
0.610942
0.610522
0.610102
0.609682
0.609262
0.608842
0.608422
0.608002
0.607582
0.607162
0.606742
0.606322
0.605902
0.605482
0.605062
0.604642
0.604222
0.603802
0.603382
0.602962
0.602542
0.602122
0.601702
0.601282
0.600862
0.600442
0.600022
0.599602
0.599182
0.598762
0.598342
0.597922
0.597502
0.597082
0.596662
0.596242
0.595822
0.595402
0.594982
0.594562
0.594142
0.593722
0.593302
0.592882
0.592462
0.592042
0.591622
0.591202
0.590782
0.590362
0.589942
0.589522
0.589102
0.588682
0.588262
0.587842
0.587422
0.587002
0.586582
0.586162
0.585742
0.585322
0.584902
0.584482
0.584062
0.583642
0.583223
0.582803
0.582383
0.581963
0.581543
0.581123
0.580703
0.580283
0.579863
0.579443
0.579023
0.578603
0.578183
0.577763
0.577343
0.576923
0.576503
0.576083
0.575663
0.575243
0.574823
0.574403
0.573983
0.573563
0.573143
0.572723
0.572303
0.571883
0.571463
0.571043
0.570623
0.570203
0.569783
0.569363
0.568943
0.568523
0.568103
0.567683
0.567263
0.566843
0.566423
0.566003
0.565583
0.565163
0.564743
0.564323
0.563903
0.563483
0.563063
0.562643
0.562223
0.561803
0.561383
0.560963
0.560543
0.560123
0.559703
0.559283
0.558863
0.558443
0.558023
0.557603
0.557183
0.556763
0.556343
0.555923
0.555503