# vtk DataFile Version 3.0.
comment
ASCII

DATASET POLYDATA
POINTS 4000 double
-5.84941 1.71557 0.344315
4.03893 0.55988 0.391214
-4.86267 -6.55449 0.328335
-3.14951 6.47024 0.704357
-4.91714 -3.99872 0.368264
-6.17015 6.11474 0.599978
-2.99821 -2.03388 -4.31848
-0.255312 3.01685 0.748223
8.2101 -1.28432 0.115874
-5.77341 3.90474 -0.0489827
-3.8391 -4.65537 1.39882
-9.68037 -1.15341 0.279307
-3.22028 -7.86635 -1.16687
0.18276 5.68273 -4.97377
3.90315 -6.97681 -1.48735
2.40708 4.8593 -0.602916
2.51393 -2.16654 0.209673
6.86484 -6.92602 0.692357
5.17327 2.76674 -0.289341
-8.7198 -5.40643 -0.905881
6.99932 -3.02456 -0.0362952
-9.2194 7.92158 -2.1063
4.19123 -2.71047 0.70791
4.307 1.54877 0.132265
5.94326 -5.81825 -0.194304
-8.89182 9.56195 0.525541
-5.73337 -10.2459 0.0750662
8.05023 4.55783 -0.164891
-9.20843 -4.20822 0.819117
-9.11517 -7.37426 -4.98497
1.55266 6.12435 -4.24492
9.73828 0.667653 0.403278
-0.101497 8.84404 -3.09177
-5.10897 -0.365793 -1.14639
-5.03162 9.20949 0.222922
-7.97603 -8.97104 -0.54394
2.95043 3.77052 -0.555295
-3.23174 4.07457 0.049577
-6.97005 2.23504 0.0571227
4.23978 -1.08545 0.0428887
2.03707 1.7515 -3.53423
3.37714 -0.290639 -0.456005
-1.9632 1.82564 -0.270396
-9.71839 2.52446 0.52563
3.4617 5.90587 -1.00689
-3.19625 -9.75619 -0.488834
-11.4323 -5.09217 -0.275813
-5.62604 4.10419 0.0392009
-3.21615 -0.616861 -0.388967
1.5159 -1.10895 -0.0288835
-8.83178 0.959277 0.219089
-4.5795 3.56732 0.644462
3.19798 4.15241 0.431833
-3.37587 5.11583 0.964415
9.83141 -8.39932 0.497556
0.479876 -7.39995 0.80947
-7.68019 2.06592 0.00286914
6.10109 -9.99477 0.329141
5.58375 3.16091 0.411565
1.49906 -3.31011 -0.783199
-7.31405 -0.737657 0.394478
10.4052 3.4201 1.00082
-6.60202 -8.82887 -0.636065
-5.62914 -1.32961 -0.422386
-11.9752 4.12596 1.42462
-0.248789 6.3928 -0.65146
-10.0619 4.44451 0.502098
0.848894 6.33861 -0.155417
-7.02488 -7.47033 -0.800864
4.29722 9.06736 -0.268548
-7.91008 6.11418 0.136692
-7.63052 7.43106 0.655399
-2.1897 -5.15787 -2.99147
9.3843 -5.97425 0.800773
-7.05583 0.729686 -0.236267
7.71268 8.75986 0.460011
6.43783 -4.22698 -0.138196
-1.94506 -5.34945 -0.619222
2.25834 -3.27845 -2.42
3.5421 6.52479 -0.170494
-5.72308 6.61299 -4.18448
-9.15314 -5.45434 0.308319
8.1516 -6.60971 0.729331
-6.72674 4.67616 0.603167
7.57542 5.8271 0.0195486
2.84721 -6.66052 0.123367
0.394476 -4.57658 -1.3573
10.0166 -9.88022 0.158425
-0.416165 -8.72594 -0.712291
8.73174 -4.29949 0.130907
-0.337298 5.15853 -1.28258
-0.144935 -0.588032 0.0170554
-2.62153 -3.23083 0.674741
5.94412 -3.07599 -0.506569
-3.02108 -0.730219 -2.77701
-4.85054 6.70632 -0.912105
3.95229 8.06301 -0.061556
9.82235 8.25146 0.629384
1.69501 2.91765 0.114351
-9.73421 5.95785 0.331589
-11.7242 8.11288 0.250987
8.98558 7.03148 0.524787
-8.31711 5.39445 -0.282287
9.1182 -7.08719 0.130858
-1.08078 -2.10227 0.657255
7.42295 -9.82539 0.293672
-5.22705 8.6071 -0.453169
-5.94337 -7.80292 0.535183
3.71725 -3.21919 -0.921632
7.86318 -0.180145 -1.0708
-7.11789 -8.74173 1.07618
-6.45521 -10.1634 -0.211305
-6.51561 3.63823 -2.5782
-4.22135 2.42952 0.813116
-2.2559 -1.5034 -0.215406
8.19833 8.1475 0.682789
7.13703 -1.82574 -0.391622
-5.87647 0.0812103 0.170453
-2.97315 -9.34016 -3.41082
-0.460652 -1.55595 -0.138411
9.25849 1.11632 0.0906253
-7.51172 -3.85017 -0.881181
5.96508 7.19509 -0.0282597
-0.107403 1.52643 -2.01354
-3.98937 -9.07719 0.982081
2.26444 0.762762 -0.903701
9.82455 -7.19455 0.348197
-8.09441 1.48128 0.914849
4.61735 0.266423 -0.970172
5.05109 10.0088 -0.0231188
-4.47745 0.699913 -3.25635
7.984 9.78839 0.394986
-7.34526 8.76875 0.325224
-3.33667 5.0791 -4.64806
6.7924 5.09497 -1.46168
5.79231 -0.71033 -0.414288
1.02869 -4.4715 -5.15914
-8.81224 -9.61159 0.200185
5.14486 -2.65347 -1.57224
0.880465 4.32494 -0.454367
5.01181 -1.31822 -1.34615
-9.04944 -0.840685 1.26485
-3.39461 -1.83744 -2.3612
0.294104 -5.79707 -0.565527
-4.80845 -8.80874 0.116222
-3.83818 -3.74711 -0.337973
-3.37959 -0.437064 0.181584
0.762597 -10.0766 -0.673862
0.0837758 5.4984 0.807264
-2.60322 6.70732 -4.78095
8.64399 -9.22735 -3.07762
8.65765 -7.66797 -0.485364
8.84535 5.68746 0.101549
3.45826 -9.27554 -1.39375
-4.22865 4.76917 -0.310092
-0.676544 -2.10503 -0.348613
-4.49519 3.28248 -0.204751
2.98129 9.98998 0.177939
-3.61921 -1.25459 -0.323704
8.79879 -9.25516 0.145532
-3.33841 7.80986 -2.22713
7.32797 1.48396 0.108722
-3.64072 8.92065 -1.79515
-3.07597 -4.59736 -0.312377
0.477015 -3.08478 0.108121
-5.71846 6.73991 0.0137419
-1.25246 -10.359 0.0988867
-3.99062 5.90111 -3.68953
-5.37583 2.45547 0.10726
-1.6241 -7.35758 -3.96255
9.92025 -1.09869 0.240812
0.00262597 -6.10182 -2.71815
2.25815 7.52595 -0.138055
-3.37051 2.67336 0.104797
-1.2835 4.45056 -6.36168
3.98391 7.69557 0.0782365
-3.66413 0.683713 -1.78019
-5.7898 -1.89733 -0.053152
7.20642 -8.53633 -2.47048
7.38217 7.57609 -0.522848
7.72307 3.13277 0.912562
-6.79914 -1.95201 0.529306
-1.93787 -6.5115 0.5692
0.0138854 -4.16483 0.723386
8.01639 -3.74002 0.515933
-8.44847 -1.14131 0.580806
-5.47704 5.59179 -0.0885482
-0.11765 -3.56644 -2.74372
6.98643 -6.84146 0.564019
6.95927 3.6982 0.391264
3.03497 -4.28296 1.27691
-9.17076 -2.27053 -1.69661
3.90731 -11.1904 -0.00382667
4.97466 6.57792 -0.0313585
-3.88653 -7.57803 -3.16633
5.25746 -4.43352 -0.071888
7.76134 3.02192 -0.00180553
5.57976 5.03279 0.110116
-8.00351 -5.37407 0.564326
6.81363 -4.67996 -0.00488753
-0.622542 2.19138 -0.0528853
-1.46981 2.81714 -2.80177
-0.847773 9.2673 -1.36053
-5.21463 -8.34327 -0.259767
1.82332 -4.23357 0.549557
-8.8975 -2.19804 -6.32092
8.59763 0.989699 -3.51579
9.55794 -0.430683 0.323664
0.8091 5.88873 -0.0410083
-10.3193 0.0320997 0.284629
-9.60768 1.28449 0.417853
1.53536 -0.394568 0.205594
4.12901 11.2072 0.590827
8.66483 -8.23162 0.0475041
8.4 2.03845 0.0330429
0.130061 9.41141 -4.52254
5.80204 -1.5041 0.026459
-7.1886 4.53579 0.277736
-1.17342 0.664146 0.2683
5.9851 1.50096 -0.0510471
3.58232 2.63399 -2.10308
9.94117 -2.23647 1.04085
-8.66536 -6.63535 0.764817
1.9266 7.10618 -0.389226
9.54366 -2.94839 0.18065
8.56052 0.0942607 0.0650942
6.6831 -3.5385 0.179046
10.4693 5.37779 0.282184
3.5858 -16.9 -0.421963
-9.02177 0.382902 -0.13397
3.57592 -3.35244 -0.752141
-3.3765 7.34183 -3.59041
4.65037 2.52316 -1.30718
3.12919 8.58781 -0.701029
-10.1442 -7.39658 0.146795
8.7726 -3.81526 -0.347772
-4.40423 -1.94934 0.78895
-1.1339 3.80709 -9.80458
9.17889 3.88297 -0.0169133
8.22922 9.44066 -1.78847
8.41656 7.79061 0.410422
-7.10764 12.0754 1.33395
-0.44309 -9.39157 -0.53312
-3.21925 -7.93008 -1.54486
6.92824 3.30749 -1.52767
1.43759 0.175157 -1.46264
-4.71101 7.29635 -3.11369
-6.19604 -1.03842 0.9055
0.931826 -2.18983 0.0651567
-6.38924 -8.46903 -0.714516
2.19398 -7.74381 -0.0389214
-5.17633 -7.96349 -0.294599
-2.20217 -6.95752 -0.701225
8.06787 -5.16638 -0.821612
1.47275 -2.23988 -1.4319
-9.67241 -9.10091 0.298315
-1.75453 -8.25401 -0.700578
-3.44517 -2.02384 2.02468
-4.0717 -1.46413 -0.11033
-7.68638 -9.98613 0.946953
-6.62055 -6.83942 0.525488
-4.78058 8.96593 0.513544
3.92089 3.08078 -0.265598
-9.29922 -8.57797 -0.0569851
2.47189 -3.45751 0.229491
-8.46254 3.6836 -0.126896
2.41167 0.399604 0.551952
-7.06811 1.43448 -4.06414
5.08549 5.11393 0.318678
-8.99746 -0.369258 0.396451
-1.10778 2.92496 -5.59928
-8.94621 7.87836 0.093527
-6.84825 -3.23548 1.61408
-9.04255 -2.24106 0.207744
6.90834 2.48047 0.492714
-1.39057 9.44553 -0.122013
2.41588 8.44341 0.590999
1.46952 -8.40764 -0.634053
8.58324 -1.97869 0.231107
-10.2594 -3.69727 0.950054
-1.60177 7.22675 -0.0810729
-0.0214067 -2.85505 0.613692
9.36076 8.36436 -0.379875
9.68384 -6.31091 0.332972
1.44326 12.933 0.315008
5.72594 4.16507 0.215744
-4.19513 3.71235 -0.891025
-9.15598 -6.38459 -0.407572
-4.54561 7.92488 -0.969545
-7.28257 -7.48858 -0.180372
9.10147 1.77886 -1.35483
-8.7246 4.93457 0.199268
7.46927 6.53122 0.4305
2.85391 9.46828 0.143406
-9.41868 2.74914 0.0341752
-8.2243 -8.85346 -0.357919
0.222364 2.81128 -2.31307
3.46496 -5.385 -1.92403
0.930825 -5.46848 -3.86058
-1.46161 -0.0292034 -1.59352
1.19969 8.55221 -3.42906
2.20967 -6.40316 0.16626
3.00887 5.77071 -8.36953
6.28726 6.04331 0.525911
4.47147 4.40435 -0.320862
9.83297 -5.48466 0.312642
-8.30441 -0.962301 -2.22941
-0.159566 1.24742 -1.71092
3.79192 -7.84832 0.0806459
7.92649 -6.40104 -0.113691
-3.02674 1.43414 0.134957
2.2168 -3.97542 0.217899
6.3408 7.89757 -2.94277
-2.15598 -9.4679 -1.12436
-9.26347 -6.72762 -0.518273
5.86793 -5.03921 -0.989823
-5.09784 -10.4895 0.603178
-2.23848 -4.3015 -1.58271
9.82293 7.33793 0.36974
1.32471 1.18785 -1.33996
-3.65783 -6.58566 -1.79199
2.14725 -1.12863 -0.313328
-6.8965 2.72233 -3.90519
1.22979 -1.31075 -5.36448
1.17871 -9.38623 -2.14896
3.92453 -6.13443 -3.82021
9.85114 -3.91546 0.208933
-6.0584 -3.22986 -1.17041
3.25689 -6.84523 -0.18568
-6.51929 6.70053 -1.72643
7.86987 8.77319 -0.426108
3.0824 -5.02615 0.271469
4.29592 -8.26339 0.269304
-5.56967 -7.39687 -3.38634
5.48299 8.71355 0.217198
7.49079 3.84536 0.611783
0.00930422 -9.18185 -2.5833
0.688125 4.38147 -1.26288
3.8181 -2.0371 -1.10219
10.3485 1.7863 1.17137
-4.339 -5.13431 -2.26285
-3.41857 9.4926 -0.870831
-8.45784 9.25292 -0.148367
9.03739 5.75154 -0.19799
7.01173 -3.50595 -2.65452
-1.69182 -1.17007 -0.0221676
-1.95894 8.59608 0.0707868
-8.69768 7.9946 -0.415323
0.375376 -7.61039 -1.81996
4.06768 3.72833 -5.67777
-6.93866 9.43352 -0.564173
-8.66624 -3.43611 -1.46899
-2.34994 -0.124989 0.0221227
3.70576 -4.5273 -1.37943
11.0342 3.82281 -0.568542
-8.08443 -6.33108 -0.755576
-9.50446 4.37337 -0.316491
4.40382 -3.73245 0.224749
-8.29297 -2.90753 -0.480268
8.42347 2.89267 0.874288
4.96169 0.00538 -0.029194
-6.02191 0.824747 0.276921
6.04169 5.28945 -0.137564
-10.6001 -6.25292 1.15588
10.1158 6.62075 0.274506
-4.11974 -1.89858 -3.90375
-5.06626 9.96135 0.318539
7.95529 0.97967 0.0662732
6.5574 -9.29421 -3.38104
3.88163 -6.19117 0.508778
-3.19424 -5.01138 -0.110558
-8.22339 2.88002 -0.555304
1.51484 3.98237 -0.817026
4.50955 -8.64206 -2.17188
-7.72203 7.20574 -0.159135
8.7429 6.44455 0.932395
2.47704 -5.18838 -1.59557
[...]
POINT_DATA 4000
SCALARS radius double 1
LOOKUP_TABLE default
0.648574
0.648152
0.64773
0.647308
0.646886
0.646464
0.646042
0.645619
0.645197
0.644775
0.644353
0.643931
0.643509
0.643087
0.642665
0.642243
0.641821
0.641399
0.640977
0.640555
0.640133
0.639711
0.639288
0.638866
0.638444
0.638022
0.6376
0.637178
0.636756
0.636334
0.635912
0.63549
0.635068
0.634646
0.634224
0.633802
0.63338
0.632957
0.632535
0.632113
0.631691
0.631269
0.630847
0.630425
0.630003
0.629581
0.629159
0.628737
0.628315
0.627893
0.627471
0.627049
0.626627
0.626204
0.625782
0.62536
0.624938
0.624516
0.624094
0.623672
0.62325
0.622828
0.622406
0.621984
0.621562
0.62114
0.620718
0.620296
0.619873
0.619451
0.619029
0.618607
0.618185
0.617763
0.617341
0.616919
0.616497
0.616075
0.615653
0.615231
0.614809
0.614387
0.613965
0.613542
0.61312
0.612698
0.612276
0.611854
0.611432
0.61101
0.610588
0.610166
0.609744
0.609322
0.6089
0.608478
0.608056
0.607634
0.607212
0.606789
0.606367
0.605945
0.605523
0.605101
0.604679
0.604257
0.603835
0.603413
0.602991
0.602569
0.602147
0.601725
0.601303
0.600881
0.600458
0.600036
0.599614
0.599192
0.59877
0.598348
0.597926
0.597504
0.597082
0.59666
0.596238
0.595816
0.595394
0.594972
0.59455
0.594127
0.593705
0.593283
0.592861
0.592439
0.592017
0.591595
0.591173
0.590751
0.590329
0.589907
0.589485
0.589063
0.588641
0.588219
0.587796
0.587374
0.586952
0.58653
0.586108
0.585686
0.585264
0.584842
0.58442
0.583998
0.583576
0.583154
0.582732
0.58231
0.581888
0.581466
0.581043
0.580621
0.580199
0.579777
0.579355
0.578933
0.578511
0.578089
0.577667
0.577245
0.576823
0.576401
0.575979
0.575557
0.575135
0.574712
0.57429
0.573868
0.573446
0.573024
0.572602
0.57218
0.571758
0.571336
0.570914
0.570492
0.57007
0.569648
0.569226
0.568804
0.568381
0.567959
0.567537
0.567115
0.566693
0.566271
0.565849
0.565427
0.565005
0.564583
0.564161
0.563739
0.563317
0.562895
0.562473
0.56205
0.561628
0.561206
0.560784
0.560362
0.55994
0.559518
0.559096
0.558674
0.558252
0.55783
0.557408
0.556986
0.556564
0.556142
0.55572
0.555297
0.554875
0.554453
0.554031
0.553609
0.553187
0.552765
0.552343
0.551921
0.551499
0.551077
0.550655
0.550233
0.549811
0.549389
0.548966
0.548544
0.548122
0.5477
0.547278
0.546856
0.546434
0.546012
0.54559
0.545168
0.544746
0.544324
0.543902
0.54348
0.543058
0.542635
0.542213
0.541791
0.541369
0.540947
0.540525
0.540103
0.539681
0.539259
0.538837
0.538415
0.537993
0.537571
0.537149
0.536727
0.536305
0.535882
0.53546
0.535038
0.534616
0.534194
0.533772
0.53335
0.532928
0.532506
0.532084
0.531662
0.53124
0.530818
0.530396
0.529974
0.529551
0.529129
0.528707
0.528285
0.527863
0.527441
0.527019
0.526597
0.526175
0.525753
0.525331
0.524909
0.524487
0.524065
0.523643
0.52322
0.522798
0.522376
0.521954
0.521532
0.52111
0.520688
0.520266
0.519844
0.519422
0.519
0.518578
0.518156
0.517734
0.517312
0.516889
0.516467
0.516045
0.515623
0.515201
0.514779
0.514357
0.513935
0.513513
0.513091
0.512669
0.512247
0.511825
0.511403
0.510981
0.510559
0.510136
0.509714
0.509292
0.50887
0.508448
0.508026
0.507604
0.507182
0.50676
0.506338
0.505916
0.505494
0.505072
0.50465
0.504228
0.503805
0.503383
0.502961
0.502539
0.502117
0.501695
0.501273
0.500851
0.500429
0.500007
0.499585
0.499163
0.498741
0.498319
0.497897
0.497474
0.497052
0.49663
0.496208
0.495786
0.495364
0.494942
0.49452
0.494098
0.493676
0.493254
0.492832
0.49241
0.491988
0.491566
0.491144
0.490721
0.490299
0.489877
0.489455
0.489033
0.488611
0.488189
0.487767
0.487345
0.486923
0.486501
0.486079
0.485657
0.485235
0.484813
0.48439
0.483968
0.483546
0.483124
0.482702
0.48228
0.481858
0.481436
0.481014
0.480592
0.48017
0.648574
0.648152
0.64773
0.647308
0.646886
0.646464
0.646042
0.645619
0.645197
0.644775
0.644353
0.643931
0.643509
0.643087
0.642665
0.642243
0.641821
0.641399
0.640977
0.640555
0.640133
0.639711
0.639288
0.638866
0.638444
0.638022
0.6376
0.637178
0.636756
0.636334
0.635912
0.63549
0.635068
0.634646
0.634224
0.633802
0.63338
0.632957
0.632535
0.632113
0.631691
0.631269
0.630847
0.630425
0.630003
0.629581
0.629159
0.628737
0.628315
0.627893
0.627471
0.627049
0.626627
0.626204
0.625782
0.62536
0.624938
0.624516
0.624094
0.623672
0.62325
0.622828
0.622406
0.621984
0.621562
0.62114
0.620718
0.620296
0.619873
0.619451
0.619029
0.618607
0.618185
0.617763
0.617341
0.616919
0.616497
0.616075
0.615653
0.615231
0.614809
0.614387
0.613965
0.613542
0.61312
0.612698
0.612276
0.611854
0.611432
0.61101
0.610588
0.610166
0.609744
0.609322
0.6089
0.608478
0.608056
0.607634
0.607212
0.606789
0.606367
0.605945
0.605523
0.605101
0.604679
0.604257
0.603835
0.603413
0.602991
0.602569
0.602147
0.601725
0.601303
0.600881
0.600458
0.600036
0.599614
0.599192
0.59877
0.598348
0.597926
0.597504
0.597082
0.59666
0.596238
0.595816
0.595394
0.594972
0.59455
0.594127
0.593705
0.593283
0.592861
0.592439
0.592017
0.591595
0.591173
0.590751
0.590329
0.589907
0.589485
0.589063
0.588641
0.588219
0.587796
0.587374
0.586952
0.58653
0.586108
0.585686
0.585264
0.584842
0.58442
0.583998
0.583576
0.583154
0.582732
0.58231
0.581888
0.581466
0.581043
0.580621
0.580199
0.579777
0.579355
0.578933
0.578511
0.578089
0.577667
0.577245
0.576823
0.576401
0.575979
0.575557
0.575135
0.574712
0.57429
0.573868
0.573446
0.573024
0.572602
0.57218
0.571758
0.571336
0.570914
0.570492
0.57007
0.569648
0.569226
0.568804
0.568381
0.567959
0.567537
0.567115
0.566693
0.566271
0.565849
0.565427
0.565005
0.564583
0.564161
0.563739
0.563317
0.562895
0.562473
0.56205
0.561628
0.561206
0.560784
0.560362
0.55994
0.559518
0.559096
0.558674
0.558252
0.55783
0.557408
0.556986
0.556564
0.556142
0.55572
0.555297
0.554875
0.554453
0.554031
0.553609
0.553187
0.552765
0.552343
0.551921
0.551499
0.551077
0.550655
0.550233
0.549811
0.549389
0.548966
0.548544
0.548122
0.5477
0.547278
0.546856
0.546434
0.546012
0.54559
0.545168
0.544746
0.544324
0.543902
0.54348
0.543058
0.542635
0.542213
0.541791
0.541369
0.540947
0.540525
0.540103
0.539681
0.539259
0.538837
0.538415
0.537993
0.537571
0.537149
0.536727
0.536305
0.535882
0.53546
0.535038
0.534616
0.534194
0.533772
0.53335
0.532928
0.532506
0.532084
0.531662
0.53124
0.530818
0.530396
0.529974
0.529551
0.529129
0.528707
0.528285
0.527863
0.527441
0.527019
0.526597
0.526175
0.525753
0.525331
0.524909
0.524487
0.524065
0.523643
0.52322
0.522798
0.522376
0.521954
0.521532
0.52111
0.520688
0.520266
0.519844
0.519422
0.519
0.518578
0.518156
0.517734
0.517312
0.516889
0.516467
0.516045
0.515623
0.515201
0.514779
0.514357
0.513935
0.513513
0.513091
0.512669
0.512247
0.511825
0.511403
0.510981
0.510559
0.510136
0.509714
0.509292
0.50887
0.508448
0.508026
0.507604
0.507182
0.50676
0.506338
0.505916
0.505494
0.505072
0.50465
0.504228
0.503805
0.503383
0.502961
0.502539
0.502117
0.501695
0.501273
0.500851
0.500429
0.500007
0.499585
0.499163
0.498741
0.498319
0.497897
0.497474
0.497052
0.49663
0.496208
0.495786
0.495364
0.494942
0.49452
0.494098
0.493676
0.493254
0.492832
0.49241
0.491988
0.491566
0.491144
0.490721
0.490299
0.489877
0.489455
0.489033
0.488611
0.488189
0.487767
0.487345
0.486923
0.486501
0.486079
0.485657
0.485235
0.484813
0.48439
0.483968
0.483546
0.483124
0.482702
0.48228
0.481858
0.481436
0.481014
0.480592
0.48017
0.648574
0.648152
0.64773
0.647308
0.646886
0.646464
0.646042
0.645619
0.645197
0.644775
0.644353
0.643931
0.643509
0.643087
0.642665
0.642243
0.641821
0.641399
0.640977
0.640555
0.640133
0.639711
0.639288
0.638866
0.638444
0.638022
0.6376
0.637178
0.636756
0.636334
0.635912
0.63549
0.635068
0.634646
0.634224
0.633802
0.63338
0.632957
0.632535
0.632113
0.631691
0.631269
0.630847
0.630425
0.630003
0.629581
0.629159
0.628737
0.628315
0.627893
0.627471
0.627049
0.626627
0.626204
0.625782
0.62536
0.624938
0.624516
0.624094
0.623672
0.62325
0.622828
0.622406
0.621984
0.621562
0.62114
0.620718
0.620296
0.619873
0.619451
0.619029
0.618607
0.618185
0.617763
0.617341
0.616919
0.616497
0.616075
0.615653
0.615231
0.614809
0.614387
0.613965
0.613542
0.61312
0.612698
0.612276
0.611854
0.611432
0.61101
0.610588
0.610166
0.609744
0.609322
0.6089
0.608478
0.608056
0.607634
0.607212
0.606789
0.606367
0.605945
0.605523
0.605101
0.604679
0.604257
0.603835
0.603413
0.602991
0.602569
0.602147
0.601725
0.601303
0.600881
0.600458
0.600036
0.599614
0.599192
0.59877
0.598348
0.597926
0.597504
0.597082
0.59666
0.596238
0.595816
0.595394
0.594972
0.59455
0.594127
0.593705
0.593283
0.592861
0.592439
0.592017
0.591595
0.591173
0.590751
0.590329
0.589907
0.589485
0.589063
0.588641
0.588219
0.587796
0.587374
0.586952
0.58653
0.586108
0.585686
0.585264
0.584842
0.58442
0.583998
0.583576
0.583154
0.582732
0.58231
0.581888
0.581466
0.581043
0.580621
0.580199
0.579777
0.579355
0.578933
0.578511
0.578089
0.577667
0.577245
0.576823
0.576401
0.575979
0.575557
0.575135
0.574712
0.57429
0.573868
0.573446
0.573024
0.572602
0.57218
0.571758
0.571336
0.570914
0.570492
0.57007
0.569648
0.569226
0.568804
0.568381
0.567959
0.567537
0.567115
0.566693
0.566271
0.565849
0.565427
0.565005
0.564583
0.564161
0.563739
0.563317
0.562895
0.562473
0.56205
0.561628
0.561206
0.560784
0.560362
0.55994
0.559518
0.559096
0.558674
0.558252
0.55783
0.557408
0.556986
0.556564
0.556142
0.55572
0.555297
0.554875
0.554453
0.554031
0.553609
0.553187
0.552765
0.552343
0.551921
0.551499
0.551077
0.550655
0.550233
0.549811
0.549389
0.548966
0.548544
0.548122
0.5477
0.547278
0.546856
0.546434
0.546012
0.54559
0.545168
0.544746
0.544324
0.543902
0.54348
0.543058
0.542635
0.542213
0.541791
0.541369
0.540947
0.540525
0.540103
0.539681
0.539259
0.538837
0.538415
0.537993
0.537571
0.537149
0.536727
0.536305
0.535882
0.53546
0.535038
0.534616
0.534194
0.533772
0.53335
0.532928
0.532506
0.532084
0.531662
0.53124
0.530818
0.530396
0.529974
0.529551
0.529129
0.528707
0.528285
0.527863
0.527441
0.527019
0.526597
0.526175
0.525753
0.525331
0.524909
0.524487
0.524065
0.523643
0.52322
0.522798
0.522376
0.521954
0.521532
0.52111
0.520688
0.520266
0.519844
0.519422
0.519
0.518578
0.518156
0.517734
0.517312
0.516889
0.516467
0.516045
0.515623
0.515201
0.514779
0.514357
0.513935
0.513513
0.513091
0.512669
0.512247
0.511825
0.511403
0.510981
0.510559
0.510136
0.509714
0.509292
0.50887
0.508448
0.508026
0.507604
0.507182
0.50676
0.506338
0.505916
0.505494
0.505072
0.50465
0.504228
0.503805
0.503383
0.502961
0.502539
0.502117
0.501695
0.501273
0.500851
0.500429
0.500007
0.499585
0.499163
0.498741
0.498319
0.497897
0.497474
0.497052
0.49663
0.496208
0.495786
0.495364
0.494942
0.49452
0.494098
0.493676
0.493254
0.492832
0.49241
0.491988
0.491566
0.491144
0.490721
0.490299
0.489877
0.489455
0.489033
0.488611
0.488189
0.487767
0.487345
0.486923
0.486501
0.486079
0.485657
0.485235
0.484813
0.48439
0.483968
0.483546
0.483124
0.482702
0.48228
0.481858
0.481436
0.481014
0.480592
0.48017
0.648574
0.648152
0.64773
0.647308
0.646886
0.646464
0.646042
0.645619
0.645197
0.644775
0.644353
0.643931
0.643509
0.643087
0.642665
0.642243
0.641821
0.641399
0.640977
0.640555
0.640133
0.639711
0.639288
0.638866
0.638444
0.638022
0.6376
0.637178
0.636756
0.636334
0.635912
0.63549
0.635068
0.634646
0.634224
0.633802
0.63338
0.632957
0.632535
0.632113
0.631691
0.631269
0.630847
0.630425
0.630003
0.629581
0.629159
0.628737
0.628315
0.627893
0.627471
0.627049
0.626627
0.626204
0.625782
0.62536
0.624938
0.624516
0.624094
0.623672
0.62325
0.622828
0.622406
0.621984
0.621562
0.62114
0.620718
0.620296
0.619873
0.619451
0.619029
0.618607
0.618185
0.617763
0.617341
0.616919
0.616497
0.616075
0.615653
0.615231
0.614809
0.614387
0.613965
0.613542
0.61312
0.612698
0.612276
0.611854
0.611432
0.61101
0.610588
0.610166
0.609744
0.609322
0.6089
0.608478
0.608056
0.607634
0.607212
0.606789
0.606367
0.605945
0.605523
0.605101
0.604679
0.604257
0.603835
0.603413
0.602991
0.602569
0.602147
0.601725
0.601303
0.600881
0.600458
0.600036
0.599614
0.599192
0.59877
0.598348
0.597926
0.597504
0.597082
0.59666
0.596238
0.595816
0.595394
0.594972
0.59455
0.594127
0.593705
0.593283
0.592861
0.592439
0.592017
0.591595
0.591173
0.590751
0.590329
0.589907
0.589485
0.589063
0.588641
0.588219
0.587796
0.587374
0.586952
0.58653
0.586108
0.585686
0.585264
0.584842
0.58442
0.583998
0.583576
0.583154
0.582732
0.58231
0.581888
0.581466
0.581043
0.580621
0.580199
0.579777
0.579355
0.578933
0.578511
0.578089
0.577667
0.577245
0.576823
0.576401
0.575979
0.575557
0.575135
0.574712
0.57429
0.573868
0.573446
0.573024
0.572602
0.57218
0.571758
0.571336
0.570914
0.570492
0.57007
0.569648
0.569226
0.568804
0.568381
0.567959
0.567537
0.567115
0.566693
0.566271
0.565849
0.565427
0.565005
0.564583
0.564161
0.563739
0.563317
0.562895
0.562473
0.56205
0.561628
0.561206
0.560784
0.560362
0.55994
0.559518
0.559096
0.558674
0.558252
0.55783
0.557408
0.556986
0.556564
0.556142
0.55572
0.555297
0.554875
0.554453
0.554031
0.553609
0.553187
0.552765
0.552343
0.551921
0.551499
0.551077
0.550655
0.550233
0.549811
0.549389
0.548966
0.548544
0.548122
0.5477
0.547278
0.546856
0.546434
0.546012
0.54559
0.545168
0.544746
0.544324
0.543902
0.54348
0.543058
0.542635
0.542213
0.541791
0.541369
0.540947
0.540525
0.540103
0.539681
0.539259
0.538837
0.538415
0.537993
0.537571
0.537149
0.536727
0.536305
0.535882
0.53546
0.535038
0.534616
0.534194
0.533772
0.53335
0.532928
0.532506
0.532084
0.531662
0.53124
0.530818
0.530396
0.529974
0.529551
0.529129
0.528707
0.528285
0.527863
0.527441
0.527019
0.526597
0.526175
0.525753
0.525331
0.524909
0.524487
0.524065
0.523643
0.52322
0.522798
0.522376
0.521954
0.521532
0.52111
0.520688
0.520266
0.519844
0.519422
0.519
0.518578
0.518156
0.517734
0.517312
0.516889
0.516467
0.516045
0.515623
0.515201
0.514779
0.514357
0.513935
0.513513
0.513091
0.512669
0.512247
0.511825
0.511403
0.510981
0.510559
0.510136
0.509714
0.509292
0.50887
0.508448
0.508026
0.507604
0.507182
0.50676
0.506338
0.505916
0.505494
0.505072
0.50465
0.504228
0.503805
0.503383
0.502961
0.502539
0.502117
0.501695
0.501273
0.500851
0.500429
0.500007
0.499585
0.499163
0.498741
0.498319
0.497897
0.497474
0.497052
0.49663
0.496208
0.495786
0.495364
0.494942
0.49452
0.494098
0.493676
0.493254
0.492832
0.49241
0.491988
0.491566
0.491144
0.490721
0.490299
0.489877
0.489455
0.489033
0.488611
0.488189
0.487767
0.487345
0.486923
0.486501
0.486079
0.485657
0.485235
0.484813
0.48439
0.483968
0.483546
0.483124
0.482702
0.48228
0.481858
0.481436
0.481014
0.480592
0.48017
0.648574
0.648152
0.64773
0.647308
0.646886
0.646464
0.646042
0.645619
0.645197
0.644775
0.644353
0.643931
0.643509
0.643087
0.642665
0.642243
0.641821
0.641399
0.640977
0.640555
0.640133
0.639711
0.639288
0.638866
0.638444
0.638022
0.6376
0.637178
0.636756
0.636334
0.635912
0.63549
0.635068
0.634646
0.634224
0.633802
0.63338
0.632957
0.632535
0.632113
0.631691
0.631269
0.630847
0.630425
0.630003
0.629581
0.629159
0.628737
0.628315
0.627893
0.627471
0.627049
0.626627
0.626204
0.625782
0.62536
0.624938
0.624516
0.624094
0.623672
0.62325
0.622828
0.622406
0.621984
0.621562
0.62114
0.620718
0.620296
0.619873
0.619451
0.619029
0.618607
0.618185
0.617763
0.617341
0.616919
0.616497
0.616075
0.615653
0.615231
0.614809
0.614387
0.613965
0.613542
0.61312
0.612698
0.612276
0.611854
0.611432
0.61101
0.610588
0.610166
0.609744
0.609322
0.6089
0.608478
0.608056
0.607634
0.607212
0.606789
0.606367
0.605945
0.605523
0.605101
0.604679
0.604257
0.603835
0.603413
0.602991
0.602569
0.602147
0.601725
0.601303
0.600881
0.600458
0.600036
0.599614
0.599192
0.59877
0.598348
0.597926
0.597504
0.597082
0.59666
0.596238
0.595816
0.595394
0.594972
0.59455
0.594127
0.593705
0.593283
0.592861
0.592439
0.592017
0.591595
0.591173
0.590751
0.590329
0.589907
0.589485
0.589063
0.588641
0.588219
0.587796
0.587374
0.586952
0.58653
0.586108
0.585686
0.585264
0.584842
0.58442
0.583998
0.583576
0.583154
0.582732
0.58231
0.581888
0.581466
0.581043
0.580621
0.580199
0.579777
0.579355
0.578933
0.578511
0.578089
0.577667
0.577245
0.576823
0.576401
0.575979
0.575557
0.575135
0.574712
0.57429
0.573868
0.573446
0.573024
0.572602
0.57218
0.571758
0.571336
0.570914
0.570492
0.57007
0.569648
0.569226
0.568804
0.568381
0.567959
0.567537
0.567115
0.566693
0.566271
0.565849
0.565427
0.565005
0.564583
0.564161
0.563739
0.563317
0.562895
0.562473
0.56205
0.561628
0.561206
0.560784
0.560362
0.55994
0.559518
0.559096
0.558674
0.558252
0.55783
0.557408
0.556986
0.556564
0.556142
0.55572
0.555297
0.554875
0.554453
0.554031
0.553609
0.553187
0.552765
0.552343
0.551921
0.551499
0.551077
0.550655
0.550233
0.549811
0.549389
0.548966
0.548544
0.548122
0.5477
0.547278
0.546856
0.546434
0.546012
0.54559
0.545168
0.544746
0.544324
0.543902
0.54348
0.543058
0.542635
0.542213
0.541791
0.541369
0.540947
0.540525
0.540103
0.539681
0.539259
0.538837
0.538415
0.537993
0.537571
0.537149
0.536727
0.536305
0.535882
0.53546
0.535038
0.534616
0.534194
0.533772
0.53335
0.532928
0.532506
0.532084
0.531662
0.53124
0.530818
0.530396
0.529974
0.529551
0.529129
0.528707
0.528285
0.527863
0.527441
0.527019
0.526597
0.526175
0.525753
0.525331
0.524909
0.524487
0.524065
0.523643
0.52322
0.522798
0.522376
0.521954
0.521532
0.52111
0.520688
0.520266
0.519844
0.519422
0.519
0.518578
0.518156
0.517734
0.517312
0.516889
0.516467
0.516045
0.515623
0.515201
0.514779
0.514357
0.513935
0.513513
0.513091
0.512669
0.512247
0.511825
0.511403
0.510981
0.510559
0.510136
0.509714
0.509292
0.50887
0.508448
0.508026
0.507604
0.507182
0.50676
0.506338
0.505916
0.505494
0.505072
0.50465
0.504228
0.503805
0.503383
0.502961
0.502539
0.502117
0.501695
0.501273
0.500851
0.500429
0.500007
0.499585
0.499163
0.498741
0.498319
0.497897
0.497474
0.497052
0.49663
0.496208
0.495786
0.495364
0.494942
0.49452
0.494098
0.493676
0.493254
0.492832
0.49241
0.491988
0.491566
0.491144
0.490721
0.490299
0.489877
0.489455
0.489033
0.488611
0.488189
0.487767
0.487345
0.486923
0.486501
0.486079
0.485657
0.485235
0.484813
0.48439
0.483968
0.483546
0.483124
0.482702
0.48228
0.481858
0.481436
0.481014
0.480592
0.48017
0.648574
0.648152
0.64773
0.647308
0.646886
0.646464
0.646042
0.645619
0.645197
0.644775
0.644353
0.643931
0.643509
0.643087
0.642665
0.642243
0.641821
0.641399
0.640977
0.640555
0.640133
0.639711
0.639288
0.638866
0.638444
0.638022
0.6376
0.637178
0.636756
0.636334
0.635912
0.63549
0.635068
0.634646
0.634224
0.633802
0.63338
0.632957
0.632535
0.632113
0.631691
0.631269
0.630847
0.630425
0.630003
0.629581
0.629159
0.628737
0.628315
0.627893
0.627471
0.627049
0.626627
0.626204
0.625782
0.62536
0.624938
0.624516
0.624094
0.623672
0.62325
0.622828
0.622406
0.621984
0.621562
0.62114
0.620718
0.620296
0.619873
0.619451
0.619029
0.618607
0.618185
0.617763
0.617341
0.616919
0.616497
0.616075
0.615653
0.615231
0.614809
0.614387
0.613965
0.613542
0.61312
0.612698
0.612276
0.611854
0.611432
0.61101
0.610588
0.610166
0.609744
0.609322
0.6089
0.608478
0.608056
0.607634
0.607212
0.606789
0.606367
0.605945
0.605523
0.605101
0.604679
0.604257
0.603835
0.603413
0.602991
0.602569
0.602147
0.601725
0.601303
0.600881
0.600458
0.600036
0.599614
0.599192
0.59877
0.598348
0.597926
0.597504
0.597082
0.59666
0.596238
0.595816
0.595394
0.594972
0.59455
0.594127
0.593705
0.593283
0.592861
0.592439
0.592017
0.591595
0.591173
0.590751
0.590329
0.589907
0.589485
0.589063
0.588641
0.588219
0.587796
0.587374
0.586952
0.58653
0.586108
0.585686
0.585264
0.584842
0.58442
0.583998
0.583576
0.583154
0.582732
0.58231
0.581888
0.581466
0.581043
0.580621
0.580199
0.579777
0.579355
0.578933
0.578511
0.578089
0.577667
0.577245
0.576823
0.576401
0.575979
0.575557
0.575135
0.574712
0.57429
0.573868
0.573446
0.573024
0.572602
0.57218
0.571758
0.571336
0.570914
0.570492
0.57007
0.569648
0.569226
0.568804
0.568381
0.567959
0.567537
0.567115
0.566693
0.566271
0.565849
0.565427
0.565005
0.564583
0.564161
0.563739
0.563317
0.562895
0.562473
0.56205
0.561628
0.561206
0.560784
0.560362
0.55994
0.559518
0.559096
0.558674
0.558252
0.55783
0.557408
0.556986
0.556564
0.556142
0.55572
0.555297
0.554875
0.554453
0.554031
0.553609
0.553187
0.552765
0.552343
0.551921
0.551499
0.551077
0.550655
0.550233
0.549811
0.549389
0.548966
0.548544
0.548122
0.5477
0.547278
0.546856
0.546434
0.546012