# vtk DataFile Version 3.0.
comment
ASCII

DATASET POLYDATA
POINTS 4000 double
-5.88021 1.70924 0.354159
4.0589 0.556056 0.408577
-4.86048 -6.55259 0.325648
-3.17296 6.5 0.704607
-4.91532 -3.98999 0.364383
-6.17047 6.12736 0.525328
-0.878601 -2.8918 -3.359
-0.635029 3.23116 0.656554
8.03953 -1.17123 0.29034
-5.71889 4.05647 -0.586294
-3.74073 -4.34931 1.08867
-9.64305 -1.22242 0.322439
-3.11845 -7.49936 -0.851249
-2.2575 6.66511 -1.46452
5.38821 -7.03606 0.275697
2.59634 4.79858 0.211117
2.25943 -1.87325 0.229898
6.90049 -6.95057 0.367858
5.44771 2.50576 0.031657
-8.83619 -5.58204 -1.29078
7.19518 -2.81886 0.175954
-9.35351 7.67064 -1.34894
3.95823 -2.26167 0.69184
4.35999 1.5719 0.186409
5.96135 -5.43119 0.177802
-8.87078 9.54824 0.452127
-5.77722 -9.65036 0.545811
8.20537 4.59075 0.111796
-8.9538 -4.19534 0.515099
-8.43365 -5.59584 -3.22896
0.13274 4.31553 0.0508471
9.7291 0.676067 0.404006
-0.682949 9.42501 -4.36935
-4.96182 -0.265676 -0.71318
-5.00917 8.92665 0.135467
-8.03951 -8.48236 -0.241534
3.29689 3.46815 -0.0949749
-2.27182 3.61317 0.648248
-6.99528 2.4337 0.361164
4.43964 -1.35098 0.185388
1.05575 1.62046 -3.87949
3.6897 -0.735235 -0.145384
-2.12057 1.93832 0.113661
-9.71548 2.32486 0.508902
2.88695 6.04288 -0.278308
-3.98784 -8.9877 -0.0460551
-10.1572 -5.13261 0.408727
-5.57833 3.98854 0.0821808
-2.89107 -1.39516 -0.320599
1.50965 -0.743448 0.310525
-8.79506 0.875867 0.409049
-4.74219 3.46925 0.63317
3.0448 4.30384 0.0408926
-3.36565 4.76947 1.00285
9.76651 -8.39083 0.450035
0.525742 -7.37033 0.818663
-7.4461 2.05469 0.482133
6.12539 -9.80657 0.331899
5.78065 3.02263 0.235065
1.18434 -3.70139 0.23875
-7.73763 -0.0840071 0.297794
9.86983 3.57525 1.13003
-6.43125 -8.19616 0.0237376
-5.71387 -1.79794 0.332124
-10.296 3.64035 0.712128
0.5616 6.27444 -0.616919
-9.94683 4.49988 0.550132
1.26703 5.60545 0.155903
-7.67091 -6.80762 0.134954
4.08099 8.87995 -0.0602331
-8.24511 5.68341 0.391143
-7.80609 7.21123 0.610468
-2.42043 -4.30921 -1.92216
8.79899 -5.63732 0.524341
-7.29863 0.563076 0.111601
7.70182 8.71633 0.471805
6.24759 -4.53054 0.323363
-1.79639 -4.97278 -0.36908
3.06066 -1.74219 -0.874559
3.53022 6.51875 -0.139121
-5.5757 5.17566 -1.7395
-9.39608 -5.76395 0.26984
8.1402 -6.74119 1.05119
-6.70742 4.84745 -0.495429
7.64919 5.71813 0.1829
2.74777 -6.28103 0.317496
0.0576193 -5.30823 -0.837692
11.3948 -10.152 0.425702
-0.214856 -9.03699 -0.026743
8.86739 -4.14831 -0.0169854
-0.797383 3.25101 -1.74562
-0.249982 -0.384507 0.148113
-2.61194 -2.61496 1.04314
5.9964 -2.60302 0.128391
-2.93659 0.940358 0.139447
-3.69469 6.12266 0.0723171
3.70999 8.14939 0.198908
9.78503 8.30189 0.632632
1.78352 2.92414 0.605523
-9.6521 5.59718 0.35052
-10.1397 8.44626 0.403497
8.96227 7.18686 0.574499
-8.43816 6.15286 0.297892
8.9719 -7.11113 0.178825
-1.69281 -1.97707 0.331246
7.41032 -9.85302 0.333783
-4.9762 8.94675 0.651439
-6.10057 -7.92141 0.647242
3.61744 -3.69006 -0.0194259
7.04512 -0.398795 0.108127
-7.18731 -8.93033 1.00627
-6.76141 -9.53975 0.44048
-6.67906 4.52676 -1.97714
-4.36504 1.92714 0.658
-1.9089 -2.07545 0.0374063
8.16234 8.05925 0.69205
6.8598 -1.60007 0.164841
-5.80871 -0.15186 0.498424
-2.97758 -8.76613 -2.36279
-0.690791 -0.994225 0.119154
9.36469 1.17264 0.158078
-8.23291 -3.83507 0.341469
6.23163 7.09823 0.240286
0.0123431 0.167788 -0.22716
-3.75498 -9.32869 0.653968
1.81167 0.0790447 -0.758227
9.80911 -7.20052 0.347351
-8.21231 1.51465 0.421097
4.95411 0.489197 -0.292288
5.30164 9.55906 -0.359579
-4.19756 0.668577 -2.00126
7.96791 9.76927 0.42791
-7.17295 8.2646 0.226625
-4.39114 4.75801 -3.64042
7.20977 5.46505 -0.529878
5.92659 -0.506245 0.151097
1.03568 -5.05082 -3.8003
-8.70737 -9.59905 0.335495
5.59544 -2.87232 0.188908
1.30178 3.84371 -0.29967
5.12812 -0.808807 -0.37486
-8.92775 -0.899684 1.27771
-3.45664 -2.68017 -2.21061
-0.0612037 -5.47209 0.197989
-5.25434 -8.59739 -0.31773
-3.38302 -4.15879 -0.517741
-3.93473 -0.785387 0.156403
0.585586 -9.61411 -0.312226
0.105402 5.65217 0.661043
-2.83413 7.02054 -3.94391
8.0316 -8.88248 0.637966
8.78598 -7.95745 0.0189721
8.59161 5.38736 0.257545
3.53117 -9.62709 -0.51719
-4.26865 5.77656 0.0109132
-0.793433 -2.81465 -0.491753
-4.35178 4.07474 0.582371
3.06227 9.84156 0.262184
-4.66659 -1.5198 -0.866683
9.09578 -9.4059 -0.37722
-3.373 7.14731 -0.633724
7.12066 1.2802 0.342659
-3.14669 8.64284 -0.0151309
-1.94624 -5.55079 0.701837
0.568244 -2.29333 0.108628
-5.67887 7.12272 0.474031
-1.41752 -10.1969 0.283689
-3.61867 5.97125 -1.71371
-5.52702 2.32348 0.209948
-2.86752 -6.97196 -2.4834
9.57025 -1.35468 0.34586
-0.718507 -6.6756 -1.84845
2.19319 6.73608 -0.281347
-3.23732 2.64275 0.216891
0.55743 3.40074 -8.94885
4.4615 7.84368 0.297016
-3.58763 -0.0438944 -0.197177
-5.9056 -2.30439 0.00471653
7.28653 -8.65946 -0.950511
6.86778 8.12234 -0.097856
7.87168 3.48056 0.831293
-6.57319 -1.71275 0.868024
-2.33052 -6.95679 0.72364
0.216885 -4.0257 0.617041
7.79318 -4.321 0.560624
-8.33698 -1.18215 0.592111
-4.89829 6.21676 0.201645
-1.09524 -4.47454 -2.12676
7.18832 -6.61299 0.557325
6.83796 4.24348 0.413451
3.11343 -4.16011 1.01851
-8.59092 -2.40592 -0.813395
4.41003 -10.4106 0.0418409
5.2685 6.31413 0.411659
-3.64394 -7.64991 -3.29119
5.38746 -4.28456 0.090583
8.15187 3.47435 0.23419
5.74325 4.88102 0.299458
-8.11879 -5.25516 0.603858
7.06879 -4.63222 0.255651
-0.708108 1.62515 0.119802
-0.962504 2.07158 0.0585561
-1.51452 8.71479 -0.232745
-5.127 -8.52712 0.231873
1.61255 -4.51305 0.556513
-8.67032 -3.47585 -4.58015
8.82939 1.58599 -1.99669
9.55592 -0.431926 0.327906
0.754378 5.31179 0.0625967
-9.90251 0.250807 0.353028
-9.48906 1.15407 0.412362
1.0297 -0.566628 -0.0272839
4.19222 9.99104 0.570226
8.00093 -7.81554 0.237019
8.30295 2.00425 0.0621474
0.608706 8.71227 -0.650828
5.58696 -1.37552 0.175518
-7.43024 4.68145 0.548196
-1.14349 0.266684 -0.182184
6.35057 1.43449 0.202606
3.29058 2.25074 -0.416438
9.91239 -2.21537 0.573951
-8.43752 -6.68829 0.941302
2.21692 7.41049 -0.201009
9.53913 -2.94257 0.187098
8.68595 0.178213 0.281395
7.08426 -2.69442 -0.398875
9.65218 5.02473 0.310965
3.15101 -14.9341 -0.0980667
-8.4438 -0.131114 0.158159
3.42842 -3.07167 -0.101411
-2.3793 7.80111 -2.91803
4.97968 1.96685 -0.144761
2.452 8.1342 -0.396709
-9.73701 -6.67701 0.274957
8.5569 -4.28654 -0.0175687
-4.36388 -1.95878 0.741307
-1.3749 4.49166 -9.17065
8.85616 4.18405 0.271041
7.40865 9.46253 -0.310653
8.05408 7.40693 0.376606
-8.16065 10.057 -0.210346
-0.502458 -8.77296 0.0585032
-2.75537 -8.66728 -0.115066
6.60573 3.1254 -0.682937
0.750503 0.217958 -1.60369
-3.66093 6.86765 -2.68188
-6.15838 -1.24698 0.557587
0.386189 -2.00966 0.385439
-6.23721 -8.68677 0.355602
2.57487 -7.7079 0.184632
-4.65813 -7.92034 -0.111904
-2.32309 -6.59073 -0.656871
7.98917 -5.156 0.260364
1.9644 -1.96951 -0.817068
-9.69409 -9.11872 0.337055
-2.04194 -7.92227 -0.588708
-3.39818 -2.29613 1.83248
-4.07968 -1.9152 0.13056
-7.63925 -9.76198 0.709307
-6.51043 -6.81987 0.693349
-4.84538 9.18493 0.598283
4.31907 2.8119 -0.0274946
-9.46643 -8.63443 -0.0700828
2.51146 -3.13789 -0.147785
-8.22167 3.00918 -0.299768
2.30913 0.74845 0.750768
-3.91563 3.90378 -2.32541
4.67419 5.59597 0.417577
-9.01185 -0.396182 0.362249
-0.553075 5.24566 -4.27002
-8.36755 8.18183 0.314486
-7.06087 -2.63814 0.540805
-9.12263 -1.81926 0.167946
7.31295 2.61019 0.552154
-1.03104 9.48406 0.0182772
2.70202 8.452 0.895453
1.94732 -7.91034 -0.205612
8.7783 -1.82793 0.252624
-10.3611 -3.96165 0.961294
-0.858278 6.33658 0.012113
-0.544076 -3.1148 0.715013
9.00024 8.13827 0.146276
9.67087 -6.31463 0.334965
1.26966 12.1341 0.309698
5.75859 4.17709 0.256543
-5.48757 -0.967918 -4.46416
-8.71406 -6.05758 -0.0755758
-3.42027 7.90763 -0.765058
-7.20636 -7.37985 -0.0620347
7.61669 2.46684 0.118379
-8.44998 5.26524 0.444106
6.73444 6.66277 0.567957
2.96489 9.39507 0.325153
-8.78459 2.01356 0.187153
-7.70058 -8.85915 0.302894
-0.0442685 1.56334 -1.41075
4.70522 -5.9555 -0.34682
0.222381 -6.63981 -0.882192
-1.72179 -1.55028 -2.3847
1.85632 6.1939 -2.61287
3.41847 -5.78241 0.155094
2.35181 5.30542 -6.7408
5.86769 6.06504 0.532256
4.31123 4.68136 -0.0407352
9.8091 -5.35817 0.395546
-8.03638 -1.23711 -1.18587
0.0549662 -0.523192 -3.40997
3.49117 -7.66778 0.100799
8.07888 -6.03101 0.241267
-3.44827 1.31596 0.131062
2.23732 -4.14222 0.222937
5.78753 7.59397 -0.319427
-1.83673 -9.47438 -0.029883
-9.12814 -7.51287 -0.128342
6.21036 -6.10898 0.142636
-5.71535 -10.5145 0.530074
-1.25276 -3.98246 -0.724267
9.81908 7.26369 0.442799
2.16418 0.532434 -1.91021
-3.41917 -6.11381 -0.565042
1.8239 -1.37127 -0.00119584
-7.41214 3.17593 -3.05157
0.564968 -2.62502 -4.27989
1.18525 -9.50101 -1.12167
4.73837 -7.50337 -0.238332
9.67373 -3.86515 0.21847
-6.93436 -3.16245 0.0702227
3.59423 -7.00706 -1.73352
-6.23082 7.30439 -0.709318
7.65571 8.45947 -0.248662
2.70069 -4.2695 0.615708
4.04358 -8.66636 0.121204
-5.01308 -6.42539 -1.93031
5.59896 8.86103 0.1998
7.5504 3.87764 0.961543
0.619404 -8.90281 -1.71351
1.25179 4.35251 -0.028223
3.69913 -2.41484 0.0389089
10.1666 1.933 0.866644
-4.42132 -4.45519 -0.724084
-2.88827 9.32778 -0.484223
-8.5243 9.50673 0.034918
9.45845 5.74752 0.205269
7.03867 -4.63843 -0.480572
-2.13035 -0.440129 -0.578015
-2.22981 9.3795 0.231172
-8.78756 7.95106 -0.158212
0.217458 -7.77386 -1.55732
4.41848 3.44588 -4.4272
-6.72837 9.40043 -0.257847
-6.50861 -3.32327 -0.269971
-2.20734 -0.510228 -0.191539
3.9425 -4.90485 -0.549592
9.80611 4.0877 0.180645
-8.62044 -4.93693 0.222604
-9.11689 4.49553 -0.327641
4.35174 -3.82879 0.174736
-7.26621 -2.80216 0.154749
8.39619 3.01915 0.500799
5.81459 0.621704 0.145462
-6.18773 0.844949 0.301579
6.33997 4.82811 0.228403
-10.3254 -6.6934 1.03048
9.53504 6.37388 0.34769
-4.40716 -2.9483 -3.41074
-5.1201 10.5351 -0.119989
7.99595 1.11333 0.271011
7.65545 -8.19519 -0.34137
3.8458 -6.83233 0.465094
-2.90042 -5.16833 -0.0155108
-8.18628 3.02741 0.18683
0.857773 3.96948 -2.04159
4.60123 -8.5681 -0.0345075
-7.9429 7.43651 0.0218623
8.6793 6.28738 0.902635
2.52045 -5.15314 -0.570128
-8.94668 8.61915 0.356616
[...]
POINT_DATA 4000
SCALARS radius double 1
LOOKUP_TABLE default
0.648574
0.648152
0.64773
0.647308
0.646886
0.646464
0.646042
0.645619
0.645197
0.644775
0.644353
0.643931
0.643509
0.643087
0.642665
0.642243
0.641821
0.641399
0.640977
0.640555
0.640133
0.639711
0.639288
0.638866
0.638444
0.638022
0.6376
0.637178
0.636756
0.636334
0.635912
0.63549
0.635068
0.634646
0.634224
0.633802
0.63338
0.632957
0.632535
0.632113
0.631691
0.631269
0.630847
0.630425
0.630003
0.629581
0.629159
0.628737
0.628315
0.627893
0.627471
0.627049
0.626627
0.626204
0.625782
0.62536
0.624938
0.624516
0.624094
0.623672
0.62325
0.622828
0.622406
0.621984
0.621562
0.62114
0.620718
0.620296
0.619873
0.619451
0.619029
0.618607
0.618185
0.617763
0.617341
0.616919
0.616497
0.616075
0.615653
0.615231
0.614809
0.614387
0.613965
0.613542
0.61312
0.612698
0.612276
0.611854
0.611432
0.61101
0.610588
0.610166
0.609744
0.609322
0.6089
0.608478
0.608056
0.607634
0.607212
0.606789
0.606367
0.605945
0.605523
0.605101
0.604679
0.604257
0.603835
0.603413
0.602991
0.602569
0.602147
0.601725
0.601303
0.600881
0.600458
0.600036
0.599614
0.599192
0.59877
0.598348
0.597926
0.597504
0.597082
0.59666
0.596238
0.595816
0.595394
0.594972
0.59455
0.594127
0.593705
0.593283
0.592861
0.592439
0.592017
0.591595
0.591173
0.590751
0.590329
0.589907
0.589485
0.589063
0.588641
0.588219
0.587796
0.587374
0.586952
0.58653
0.586108
0.585686
0.585264
0.584842
0.58442
0.583998
0.583576
0.583154
0.582732
0.58231
0.581888
0.581466
0.581043
0.580621
0.580199
0.579777
0.579355
0.578933
0.578511
0.578089
0.577667
0.577245
0.576823
0.576401
0.575979
0.575557
0.575135
0.574712
0.57429
0.573868
0.573446
0.573024
0.572602
0.57218
0.571758
0.571336
0.570914
0.570492
0.57007
0.569648
0.569226
0.568804
0.568381
0.567959
0.567537
0.567115
0.566693
0.566271
0.565849
0.565427
0.565005
0.564583
0.564161
0.563739
0.563317
0.562895
0.562473
0.56205
0.561628
0.561206
0.560784
0.560362
0.55994
0.559518
0.559096
0.558674
0.558252
0.55783
0.557408
0.556986
0.556564
0.556142
0.55572
0.555297
0.554875
0.554453
0.554031
0.553609
0.553187
0.552765
0.552343
0.551921
0.551499
0.551077
0.550655
0.550233
0.549811
0.549389
0.548966
0.548544
0.548122
0.5477
0.547278
0.546856
0.546434
0.546012
0.54559
0.545168
0.544746
0.544324
0.543902
0.54348
0.543058
0.542635
0.542213
0.541791
0.541369
0.540947
0.540525
0.540103
0.539681
0.539259
0.538837
0.538415
0.537993
0.537571
0.537149
0.536727
0.536305
0.535882
0.53546
0.535038
0.534616
0.534194
0.533772
0.53335
0.532928
0.532506
0.532084
0.531662
0.53124
0.530818
0.530396
0.529974
0.529551
0.529129
0.528707
0.528285
0.527863
0.527441
0.527019
0.526597
0.526175
0.525753
0.525331
0.524909
0.524487
0.524065
0.523643
0.52322
0.522798
0.522376
0.521954
0.521532
0.52111
0.520688
0.520266
0.519844
0.519422
0.519
0.518578
0.518156
0.517734
0.517312
0.516889
0.516467
0.516045
0.515623
0.515201
0.514779
0.514357
0.513935
0.513513
0.513091
0.512669
0.512247
0.511825
0.511403
0.510981
0.510559
0.510136
0.509714
0.509292
0.50887
0.508448
0.508026
0.507604
0.507182
0.50676
0.506338
0.505916
0.505494
0.505072
0.50465
0.504228
0.503805
0.503383
0.502961
0.502539
0.502117
0.501695
0.501273
0.500851
0.500429
0.500007
0.499585
0.499163
0.498741
0.498319
0.497897
0.497474
0.497052
0.49663
0.496208
0.495786
0.495364
0.494942
0.49452
0.494098
0.493676
0.493254
0.492832
0.49241
0.491988
0.491566
0.491144
0.490721
0.490299
0.489877
0.489455
0.489033
0.488611
0.488189
0.487767
0.487345
0.486923
0.486501
0.486079
0.485657
0.485235
0.484813
0.48439
0.483968
0.483546
0.483124
0.482702
0.48228
0.481858
0.481436
0.481014
0.480592
0.48017
0.648574
0.648152
0.64773
0.647308
0.646886
0.646464
0.646042
0.645619
0.645197
0.644775
0.644353
0.643931
0.643509
0.643087
0.642665
0.642243
0.641821
0.641399
0.640977
0.640555
0.640133
0.639711
0.639288
0.638866
0.638444
0.638022
0.6376
0.637178
0.636756
0.636334
0.635912
0.63549
0.635068
0.634646
0.634224
0.633802
0.63338
0.632957
0.632535
0.632113
0.631691
0.631269
0.630847
0.630425
0.630003
0.629581
0.629159
0.628737
0.628315
0.627893
0.627471
0.627049
0.626627
0.626204
0.625782
0.62536
0.624938
0.624516
0.624094
0.623672
0.62325
0.622828
0.622406
0.621984
0.621562
0.62114
0.620718
0.620296
0.619873
0.619451
0.619029
0.618607
0.618185
0.617763
0.617341
0.616919
0.616497
0.616075
0.615653
0.615231
0.614809
0.614387
0.613965
0.613542
0.61312
0.612698
0.612276
0.611854
0.611432
0.61101
0.610588
0.610166
0.609744
0.609322
0.6089
0.608478
0.608056
0.607634
0.607212
0.606789
0.606367
0.605945
0.605523
0.605101
0.604679
0.604257
0.603835
0.603413
0.602991
0.602569
0.602147
0.601725
0.601303
0.600881
0.600458
0.600036
0.599614
0.599192
0.59877
0.598348
0.597926
0.597504
0.597082
0.59666
0.596238
0.595816
0.595394
0.594972
0.59455
0.594127
0.593705
0.593283
0.592861
0.592439
0.592017
0.591595
0.591173
0.590751
0.590329
0.589907
0.589485
0.589063
0.588641
0.588219
0.587796
0.587374
0.586952
0.58653
0.586108
0.585686
0.585264
0.584842
0.58442
0.583998
0.583576
0.583154
0.582732
0.58231
0.581888
0.581466
0.581043
0.580621
0.580199
0.579777
0.579355
0.578933
0.578511
0.578089
0.577667
0.577245
0.576823
0.576401
0.575979
0.575557
0.575135
0.574712
0.57429
0.573868
0.573446
0.573024
0.572602
0.57218
0.571758
0.571336
0.570914
0.570492
0.57007
0.569648
0.569226
0.568804
0.568381
0.567959
0.567537
0.567115
0.566693
0.566271
0.565849
0.565427
0.565005
0.564583
0.564161
0.563739
0.563317
0.562895
0.562473
0.56205
0.561628
0.561206
0.560784
0.560362
0.55994
0.559518
0.559096
0.558674
0.558252
0.55783
0.557408
0.556986
0.556564
0.556142
0.55572
0.555297
0.554875
0.554453
0.554031
0.553609
0.553187
0.552765
0.552343
0.551921
0.551499
0.551077
0.550655
0.550233
0.549811
0.549389
0.548966
0.548544
0.548122
0.5477
0.547278
0.546856
0.546434
0.546012
0.54559
0.545168
0.544746
0.544324
0.543902
0.54348
0.543058
0.542635
0.542213
0.541791
0.541369
0.540947
0.540525
0.540103
0.539681
0.539259
0.538837
0.538415
0.537993
0.537571
0.537149
0.536727
0.536305
0.535882
0.53546
0.535038
0.534616
0.534194
0.533772
0.53335
0.532928
0.532506
0.532084
0.531662
0.53124
0.530818
0.530396
0.529974
0.529551
0.529129
0.528707
0.528285
0.527863
0.527441
0.527019
0.526597
0.526175
0.525753
0.525331
0.524909
0.524487
0.524065
0.523643
0.52322
0.522798
0.522376
0.521954
0.521532
0.52111
0.520688
0.520266
0.519844
0.519422
0.519
0.518578
0.518156
0.517734
0.517312
0.516889
0.516467
0.516045
0.515623
0.515201
0.514779
0.514357
0.513935
0.513513
0.513091
0.512669
0.512247
0.511825
0.511403
0.510981
0.510559
0.510136
0.509714
0.509292
0.50887
0.508448
0.508026
0.507604
0.507182
0.50676
0.506338
0.505916
0.505494
0.505072
0.50465
0.504228
0.503805
0.503383
0.502961
0.502539
0.502117
0.501695
0.501273
0.500851
0.500429
0.500007
0.499585
0.499163
0.498741
0.498319
0.497897
0.497474
0.497052
0.49663
0.496208
0.495786
0.495364
0.494942
0.49452
0.494098
0.493676
0.493254
0.492832
0.49241
0.491988
0.491566
0.491144
0.490721
0.490299
0.489877
0.489455
0.489033
0.488611
0.488189
0.487767
0.487345
0.486923
0.486501
0.486079
0.485657
0.485235
0.484813
0.48439
0.483968
0.483546
0.483124
0.482702
0.48228
0.481858
0.481436
0.481014
0.480592
0.48017
0.648574
0.648152
0.64773
0.647308
0.646886
0.646464
0.646042
0.645619
0.645197
0.644775
0.644353
0.643931
0.643509
0.643087
0.642665
0.642243
0.641821
0.641399
0.640977
0.640555
0.640133
0.639711
0.639288
0.638866
0.638444
0.638022
0.6376
0.637178
0.636756
0.636334
0.635912
0.63549
0.635068
0.634646
0.634224
0.633802
0.63338
0.632957
0.632535
0.632113
0.631691
0.631269
0.630847
0.630425
0.630003
0.629581
0.629159
0.628737
0.628315
0.627893
0.627471
0.627049
0.626627
0.626204
0.625782
0.62536
0.624938
0.624516
0.624094
0.623672
0.62325
0.622828
0.622406
0.621984
0.621562
0.62114
0.620718
0.620296
0.619873
0.619451
0.619029
0.618607
0.618185
0.617763
0.617341
0.616919
0.616497
0.616075
0.615653
0.615231
0.614809
0.614387
0.613965
0.613542
0.61312
0.612698
0.612276
0.611854
0.611432
0.61101
0.610588
0.610166
0.609744
0.609322
0.6089
0.608478
0.608056
0.607634
0.607212
0.606789
0.606367
0.605945
0.605523
0.605101
0.604679
0.604257
0.603835
0.603413
0.602991
0.602569
0.602147
0.601725
0.601303
0.600881
0.600458
0.600036
0.599614
0.599192
0.59877
0.598348
0.597926
0.597504
0.597082
0.59666
0.596238
0.595816
0.595394
0.594972
0.59455
0.594127
0.593705
0.593283
0.592861
0.592439
0.592017
0.591595
0.591173
0.590751
0.590329
0.589907
0.589485
0.589063
0.588641
0.588219
0.587796
0.587374
0.586952
0.58653
0.586108
0.585686
0.585264
0.584842
0.58442
0.583998
0.583576
0.583154
0.582732
0.58231
0.581888
0.581466
0.581043
0.580621
0.580199
0.579777
0.579355
0.578933
0.578511
0.578089
0.577667
0.577245
0.576823
0.576401
0.575979
0.575557
0.575135
0.574712
0.57429
0.573868
0.573446
0.573024
0.572602
0.57218
0.571758
0.571336
0.570914
0.570492
0.57007
0.569648
0.569226
0.568804
0.568381
0.567959
0.567537
0.567115
0.566693
0.566271
0.565849
0.565427
0.565005
0.564583
0.564161
0.563739
0.563317
0.562895
0.562473
0.56205
0.561628
0.561206
0.560784
0.560362
0.55994
0.559518
0.559096
0.558674
0.558252
0.55783
0.557408
0.556986
0.556564
0.556142
0.55572
0.555297
0.554875
0.554453
0.554031
0.553609
0.553187
0.552765
0.552343
0.551921
0.551499
0.551077
0.550655
0.550233
0.549811
0.549389
0.548966
0.548544
0.548122
0.5477
0.547278
0.546856
0.546434
0.546012
0.54559
0.545168
0.544746
0.544324
0.543902
0.54348
0.543058
0.542635
0.542213
0.541791
0.541369
0.540947
0.540525
0.540103
0.539681
0.539259
0.538837
0.538415
0.537993
0.537571
0.537149
0.536727
0.536305
0.535882
0.53546
0.535038
0.534616
0.534194
0.533772
0.53335
0.532928
0.532506
0.532084
0.531662
0.53124
0.530818
0.530396
0.529974
0.529551
0.529129
0.528707
0.528285
0.527863
0.527441
0.527019
0.526597
0.526175
0.525753
0.525331
0.524909
0.524487
0.524065
0.523643
0.52322
0.522798
0.522376
0.521954
0.521532
0.52111
0.520688
0.520266
0.519844
0.519422
0.519
0.518578
0.518156
0.517734
0.517312
0.516889
0.516467
0.516045
0.515623
0.515201
0.514779
0.514357
0.513935
0.513513
0.513091
0.512669
0.512247
0.511825
0.511403
0.510981
0.510559
0.510136
0.509714
0.509292
0.50887
0.508448
0.508026
0.507604
0.507182
0.50676
0.506338
0.505916
0.505494
0.505072
0.50465
0.504228
0.503805
0.503383
0.502961
0.502539
0.502117
0.501695
0.501273
0.500851
0.500429
0.500007
0.499585
0.499163
0.498741
0.498319
0.497897
0.497474
0.497052
0.49663
0.496208
0.495786
0.495364
0.494942
0.49452
0.494098
0.493676
0.493254
0.492832
0.49241
0.491988
0.491566
0.491144
0.490721
0.490299
0.489877
0.489455
0.489033
0.488611
0.488189
0.487767
0.487345
0.486923
0.486501
0.486079
0.485657
0.485235
0.484813
0.48439
0.483968
0.483546
0.483124
0.482702
0.48228
0.481858
0.481436
0.481014
0.480592
0.48017
0.648574
0.648152
0.64773
0.647308
0.646886
0.646464
0.646042
0.645619
0.645197
0.644775
0.644353
0.643931
0.643509
0.643087
0.642665
0.642243
0.641821
0.641399
0.640977
0.640555
0.640133
0.639711
0.639288
0.638866
0.638444
0.638022
0.6376
0.637178
0.636756
0.636334
0.635912
0.63549
0.635068
0.634646
0.634224
0.633802
0.63338
0.632957
0.632535
0.632113
0.631691
0.631269
0.630847
0.630425
0.630003
0.629581
0.629159
0.628737
0.628315
0.627893
0.627471
0.627049
0.626627
0.626204
0.625782
0.62536
0.624938
0.624516
0.624094
0.623672
0.62325
0.622828
0.622406
0.621984
0.621562
0.62114
0.620718
0.620296
0.619873
0.619451
0.619029
0.618607
0.618185
0.617763
0.617341
0.616919
0.616497
0.616075
0.615653
0.615231
0.614809
0.614387
0.613965
0.613542
0.61312
0.612698
0.612276
0.611854
0.611432
0.61101
0.610588
0.610166
0.609744
0.609322
0.6089
0.608478
0.608056
0.607634
0.607212
0.606789
0.606367
0.605945
0.605523
0.605101
0.604679
0.604257
0.603835
0.603413
0.602991
0.602569
0.602147
0.601725
0.601303
0.600881
0.600458
0.600036
0.599614
0.599192
0.59877
0.598348
0.597926
0.597504
0.597082
0.59666
0.596238
0.595816
0.595394
0.594972
0.59455
0.594127
0.593705
0.593283
0.592861
0.592439
0.592017
0.591595
0.591173
0.590751
0.590329
0.589907
0.589485
0.589063
0.588641
0.588219
0.587796
0.587374
0.586952
0.58653
0.586108
0.585686
0.585264
0.584842
0.58442
0.583998
0.583576
0.583154
0.582732
0.58231
0.581888
0.581466
0.581043
0.580621
0.580199
0.579777
0.579355
0.578933
0.578511
0.578089
0.577667
0.577245
0.576823
0.576401
0.575979
0.575557
0.575135
0.574712
0.57429
0.573868
0.573446
0.573024
0.572602
0.57218
0.571758
0.571336
0.570914
0.570492
0.57007
0.569648
0.569226
0.568804
0.568381
0.567959
0.567537
0.567115
0.566693
0.566271
0.565849
0.565427
0.565005
0.564583
0.564161
0.563739
0.563317
0.562895
0.562473
0.56205
0.561628
0.561206
0.560784
0.560362
0.55994
0.559518
0.559096
0.558674
0.558252
0.55783
0.557408
0.556986
0.556564
0.556142
0.55572
0.555297
0.554875
0.554453
0.554031
0.553609
0.553187
0.552765
0.552343
0.551921
0.551499
0.551077
0.550655
0.550233
0.549811
0.549389
0.548966
0.548544
0.548122
0.5477
0.547278
0.546856
0.546434
0.546012
0.54559
0.545168
0.544746
0.544324
0.543902
0.54348
0.543058
0.542635
0.542213
0.541791
0.541369
0.540947
0.540525
0.540103
0.539681
0.539259
0.538837
0.538415
0.537993
0.537571
0.537149
0.536727
0.536305
0.535882
0.53546
0.535038
0.534616
0.534194
0.533772
0.53335
0.532928
0.532506
0.532084
0.531662
0.53124
0.530818
0.530396
0.529974
0.529551
0.529129
0.528707
0.528285
0.527863
0.527441
0.527019
0.526597
0.526175
0.525753
0.525331
0.524909
0.524487
0.524065
0.523643
0.52322
0.522798
0.522376
0.521954
0.521532
0.52111
0.520688
0.520266
0.519844
0.519422
0.519
0.518578
0.518156
0.517734
0.517312
0.516889
0.516467
0.516045
0.515623
0.515201
0.514779
0.514357
0.513935
0.513513
0.513091
0.512669
0.512247
0.511825
0.511403
0.510981
0.510559
0.510136
0.509714
0.509292
0.50887
0.508448
0.508026
0.507604
0.507182
0.50676
0.506338
0.505916
0.505494
0.505072
0.50465
0.504228
0.503805
0.503383
0.502961
0.502539
0.502117
0.501695
0.501273
0.500851
0.500429
0.500007
0.499585
0.499163
0.498741
0.498319
0.497897
0.497474
0.497052
0.49663
0.496208
0.495786
0.495364
0.494942
0.49452
0.494098
0.493676
0.493254
0.492832
0.49241
0.491988
0.491566
0.491144
0.490721
0.490299
0.489877
0.489455
0.489033
0.488611
0.488189
0.487767
0.487345
0.486923
0.486501
0.486079
0.485657
0.485235
0.484813
0.48439
0.483968
0.483546
0.483124
0.482702
0.48228
0.481858
0.481436
0.481014
0.480592
0.48017
0.648574
0.648152
0.64773
0.647308
0.646886
0.646464
0.646042
0.645619
0.645197
0.644775
0.644353
0.643931
0.643509
0.643087
0.642665
0.642243
0.641821
0.641399
0.640977
0.640555
0.640133
0.639711
0.639288
0.638866
0.638444
0.638022
0.6376
0.637178
0.636756
0.636334
0.635912
0.63549
0.635068
0.634646
0.634224
0.633802
0.63338
0.632957
0.632535
0.632113
0.631691
0.631269
0.630847
0.630425
0.630003
0.629581
0.629159
0.628737
0.628315
0.627893
0.627471
0.627049
0.626627
0.626204
0.625782
0.62536
0.624938
0.624516
0.624094
0.623672
0.62325
0.622828
0.622406
0.621984
0.621562
0.62114
0.620718
0.620296
0.619873
0.619451
0.619029
0.618607
0.618185
0.617763
0.617341
0.616919
0.616497
0.616075
0.615653
0.615231
0.614809
0.614387
0.613965
0.613542
0.61312
0.612698
0.612276
0.611854
0.611432
0.61101
0.610588
0.610166
0.609744
0.609322
0.6089
0.608478
0.608056
0.607634
0.607212
0.606789
0.606367
0.605945
0.605523
0.605101
0.604679
0.604257
0.603835
0.603413
0.602991
0.602569
0.602147
0.601725
0.601303
0.600881
0.600458
0.600036
0.599614
0.599192
0.59877
0.598348
0.597926
0.597504
0.597082
0.59666
0.596238
0.595816
0.595394
0.594972
0.59455
0.594127
0.593705
0.593283
0.592861
0.592439
0.592017
0.591595
0.591173
0.590751
0.590329
0.589907
0.589485
0.589063
0.588641
0.588219
0.587796
0.587374
0.586952
0.58653
0.586108
0.585686
0.585264
0.584842
0.58442
0.583998
0.583576
0.583154
0.582732
0.58231
0.581888
0.581466
0.581043
0.580621
0.580199
0.579777
0.579355
0.578933
0.578511
0.578089
0.577667
0.577245
0.576823
0.576401
0.575979
0.575557
0.575135
0.574712
0.57429
0.573868
0.573446
0.573024
0.572602
0.57218
0.571758
0.571336
0.570914
0.570492
0.57007
0.569648
0.569226
0.568804
0.568381
0.567959
0.567537
0.567115
0.566693
0.566271
0.565849
0.565427
0.565005
0.564583
0.564161
0.563739
0.563317
0.562895
0.562473
0.56205
0.561628
0.561206
0.560784
0.560362
0.55994
0.559518
0.559096
0.558674
0.558252
0.55783
0.557408
0.556986
0.556564
0.556142
0.55572
0.555297
0.554875
0.554453
0.554031
0.553609
0.553187
0.552765
0.552343
0.551921
0.551499
0.551077
0.550655
0.550233
0.549811
0.549389
0.548966
0.548544
0.548122
0.5477
0.547278
0.546856
0.546434
0.546012
0.54559
0.545168
0.544746
0.544324
0.543902
0.54348
0.543058
0.542635
0.542213
0.541791
0.541369
0.540947
0.540525
0.540103
0.539681
0.539259
0.538837
0.538415
0.537993
0.537571
0.537149
0.536727
0.536305
0.535882
0.53546
0.535038
0.534616
0.534194
0.533772
0.53335
0.532928
0.532506
0.532084
0.531662
0.53124
0.530818
0.530396
0.529974
0.529551
0.529129
0.528707
0.528285
0.527863
0.527441
0.527019
0.526597
0.526175
0.525753
0.525331
0.524909
0.524487
0.524065
0.523643
0.52322
0.522798
0.522376
0.521954
0.521532
0.52111
0.520688
0.520266
0.519844
0.519422
0.519
0.518578
0.518156
0.517734
0.517312
0.516889
0.516467
0.516045
0.515623
0.515201
0.514779
0.514357
0.513935
0.513513
0.513091
0.512669
0.512247
0.511825
0.511403
0.510981
0.510559
0.510136
0.509714
0.509292
0.50887
0.508448
0.508026
0.507604
0.507182
0.50676
0.506338
0.505916
0.505494
0.505072
0.50465
0.504228
0.503805
0.503383
0.502961
0.502539
0.502117
0.501695
0.501273
0.500851
0.500429
0.500007
0.499585
0.499163
0.498741
0.498319
0.497897
0.497474
0.497052
0.49663
0.496208
0.495786
0.495364
0.494942
0.49452
0.494098
0.493676
0.493254
0.492832
0.49241
0.491988
0.491566
0.491144
0.490721
0.490299
0.489877
0.489455
0.489033
0.488611
0.488189
0.487767
0.487345
0.486923
0.486501
0.486079
0.485657
0.485235
0.484813
0.48439
0.483968
0.483546
0.483124
0.482702
0.48228
0.481858
0.481436
0.481014
0.480592
0.48017
0.648574
0.648152
0.64773
0.647308
0.646886
0.646464
0.646042
0.645619
0.645197
0.644775
0.644353
0.643931
0.643509
0.643087
0.642665
0.642243
0.641821
0.641399
0.640977
0.640555
0.640133
0.639711
0.639288
0.638866
0.638444
0.638022
0.6376
0.637178
0.636756
0.636334
0.635912
0.63549
0.635068
0.634646
0.634224
0.633802
0.63338
0.632957
0.632535
0.632113
0.631691
0.631269
0.630847
0.630425
0.630003
0.629581
0.629159
0.628737
0.628315
0.627893
0.627471
0.627049
0.626627
0.626204
0.625782
0.62536
0.624938
0.624516
0.624094
0.623672
0.62325
0.622828
0.622406
0.621984
0.621562
0.62114
0.620718
0.620296
0.619873
0.619451
0.619029
0.618607
0.618185
0.617763
0.617341
0.616919
0.616497
0.616075
0.615653
0.615231
0.614809
0.614387
0.613965
0.613542
0.61312
0.612698
0.612276
0.611854
0.611432
0.61101
0.610588
0.610166
0.609744
0.609322
0.6089
0.608478
0.608056
0.607634
0.607212
0.606789
0.606367
0.605945
0.605523
0.605101
0.604679
0.604257
0.603835
0.603413
0.602991
0.602569
0.602147
0.601725
0.601303
0.600881
0.600458
0.600036
0.599614
0.599192
0.59877
0.598348
0.597926
0.597504
0.597082
0.59666
0.596238
0.595816
0.595394
0.594972
0.59455
0.594127
0.593705
0.593283
0.592861
0.592439
0.592017
0.591595
0.591173
0.590751
0.590329
0.589907
0.589485
0.589063
0.588641
0.588219
0.587796
0.587374
0.586952
0.58653
0.586108
0.585686
0.585264
0.584842
0.58442
0.583998
0.583576
0.583154
0.582732
0.58231
0.581888
0.581466
0.581043
0.580621
0.580199
0.579777
0.579355
0.578933
0.578511
0.578089
0.577667
0.577245
0.576823
0.576401
0.575979
0.575557
0.575135
0.574712
0.57429
0.573868
0.573446
0.573024
0.572602
0.57218
0.571758
0.571336
0.570914
0.570492
0.57007
0.569648
0.569226
0.568804
0.568381
0.567959
0.567537
0.567115
0.566693
0.566271
0.565849
0.565427
0.565005
0.564583
0.564161
0.563739
0.563317
0.562895
0.562473
0.56205
0.561628
0.561206
0.560784
0.560362
0.55994
0.559518
0.559096
0.558674
0.558252
0.55783
0.557408
0.556986
0.556564
0.556142
0.55572
0.555297
0.554875
0.554453
0.554031
0.553609
0.553187
0.552765
0.552343
0.551921
0.551499
0.551077
0.550655
0.550233
0.549811
0.549389
0.548966
0.548544
0.548122
0.5477
0.547278
0.546856
0.546434
0.546012